[Molden Format]
[Atoms] (Angs)
  C      1    6      5.38708610      1.19101114     -0.00000000
  C      2    6      3.99189070      1.06071126     -0.00000000
  C      3    6      6.21309044      0.04921471      0.00000000
  C      4    6      5.63456771     -1.23001120      0.00000000
  C      5    6      4.23545543     -1.36536687      0.00000000
  C      6    6      3.41393550     -0.22601998      0.00000000
  N      7    7      1.99796605     -0.48702359      0.00000000
  N      8    7      1.29679689      0.55718855     -0.00000000
  C      9    6     -0.11397051      0.31959694     -0.00000000
  C     10    6     -0.92868597      1.46447214     -0.00000000
  C     11    6     -2.32567437      1.35269118      0.00000000
  C     12    6     -2.94457877      0.08020355     -0.00000000
  C     13    6     -2.10990697     -1.07107689      0.00000000
  C     14    6     -0.71875824     -0.95680710     -0.00000000
  H     15    1      5.83777935      2.19011218     -0.00000000
  H     16    1      3.33801096      1.93660822     -0.00000000
  H     17    1      7.30322960      0.16059225     -0.00000000
  H     18    1      6.26985689     -2.12272736      0.00000000
  H     19    1      3.75657799     -2.35020309      0.00000000
  H     20    1     -0.44330594      2.44685805     -0.00000000
  H     21    1     -2.95781245      2.24776347      0.00000000
  H     22    1     -2.58563428     -2.05875591      0.00000000
  H     23    1     -0.08171270     -1.84587005     -0.00000000
  O     24    8     -4.27956295     -0.04243733     -0.00000000
 Ca     25   20     -6.38352663     -0.23838735     -0.00000000
[GTO]
1    0
S    8    1.000000
   6.66500000E+03    6.92000000E-04 
   1.00000000E+03    5.32900000E-03 
   2.28000000E+02    2.70770000E-02 
   6.47100000E+01    1.01718000E-01 
   2.10600000E+01    2.74740000E-01 
   7.49500000E+00    4.48564000E-01 
   2.79700000E+00    2.85074000E-01 
   5.21500000E-01    1.52040000E-02 
S    8    1.000000
   6.66500000E+03   -1.46000000E-04 
   1.00000000E+03   -1.15400000E-03 
   2.28000000E+02   -5.72500000E-03 
   6.47100000E+01   -2.33120000E-02 
   2.10600000E+01   -6.39550000E-02 
   7.49500000E+00   -1.49981000E-01 
   2.79700000E+00   -1.27262000E-01 
   5.21500000E-01    5.44529000E-01 
S    1    1.000000
   1.59600000E-01    1.00000000E+00 
S    1    1.000000
   4.69000000E-02    1.00000000E+00 
P    3    1.000000
   9.43900000E+00    3.81090000E-02 
   2.00200000E+00    2.09480000E-01 
   5.45600000E-01    5.08557000E-01 
P    1    1.000000
   1.51700000E-01    1.00000000E+00 
P    1    1.000000
   4.04100000E-02    1.00000000E+00 
D    1    1.000000
   5.50000000E-01    1.00000000E+00 
D    1    1.000000
   1.51000000E-01    1.00000000E+00 

2    0
S    8    1.000000
   6.66500000E+03    6.92000000E-04 
   1.00000000E+03    5.32900000E-03 
   2.28000000E+02    2.70770000E-02 
   6.47100000E+01    1.01718000E-01 
   2.10600000E+01    2.74740000E-01 
   7.49500000E+00    4.48564000E-01 
   2.79700000E+00    2.85074000E-01 
   5.21500000E-01    1.52040000E-02 
S    8    1.000000
   6.66500000E+03   -1.46000000E-04 
   1.00000000E+03   -1.15400000E-03 
   2.28000000E+02   -5.72500000E-03 
   6.47100000E+01   -2.33120000E-02 
   2.10600000E+01   -6.39550000E-02 
   7.49500000E+00   -1.49981000E-01 
   2.79700000E+00   -1.27262000E-01 
   5.21500000E-01    5.44529000E-01 
S    1    1.000000
   1.59600000E-01    1.00000000E+00 
S    1    1.000000
   4.69000000E-02    1.00000000E+00 
P    3    1.000000
   9.43900000E+00    3.81090000E-02 
   2.00200000E+00    2.09480000E-01 
   5.45600000E-01    5.08557000E-01 
P    1    1.000000
   1.51700000E-01    1.00000000E+00 
P    1    1.000000
   4.04100000E-02    1.00000000E+00 
D    1    1.000000
   5.50000000E-01    1.00000000E+00 
D    1    1.000000
   1.51000000E-01    1.00000000E+00 

3    0
S    8    1.000000
   6.66500000E+03    6.92000000E-04 
   1.00000000E+03    5.32900000E-03 
   2.28000000E+02    2.70770000E-02 
   6.47100000E+01    1.01718000E-01 
   2.10600000E+01    2.74740000E-01 
   7.49500000E+00    4.48564000E-01 
   2.79700000E+00    2.85074000E-01 
   5.21500000E-01    1.52040000E-02 
S    8    1.000000
   6.66500000E+03   -1.46000000E-04 
   1.00000000E+03   -1.15400000E-03 
   2.28000000E+02   -5.72500000E-03 
   6.47100000E+01   -2.33120000E-02 
   2.10600000E+01   -6.39550000E-02 
   7.49500000E+00   -1.49981000E-01 
   2.79700000E+00   -1.27262000E-01 
   5.21500000E-01    5.44529000E-01 
S    1    1.000000
   1.59600000E-01    1.00000000E+00 
S    1    1.000000
   4.69000000E-02    1.00000000E+00 
P    3    1.000000
   9.43900000E+00    3.81090000E-02 
   2.00200000E+00    2.09480000E-01 
   5.45600000E-01    5.08557000E-01 
P    1    1.000000
   1.51700000E-01    1.00000000E+00 
P    1    1.000000
   4.04100000E-02    1.00000000E+00 
D    1    1.000000
   5.50000000E-01    1.00000000E+00 
D    1    1.000000
   1.51000000E-01    1.00000000E+00 

4    0
S    8    1.000000
   6.66500000E+03    6.92000000E-04 
   1.00000000E+03    5.32900000E-03 
   2.28000000E+02    2.70770000E-02 
   6.47100000E+01    1.01718000E-01 
   2.10600000E+01    2.74740000E-01 
   7.49500000E+00    4.48564000E-01 
   2.79700000E+00    2.85074000E-01 
   5.21500000E-01    1.52040000E-02 
S    8    1.000000
   6.66500000E+03   -1.46000000E-04 
   1.00000000E+03   -1.15400000E-03 
   2.28000000E+02   -5.72500000E-03 
   6.47100000E+01   -2.33120000E-02 
   2.10600000E+01   -6.39550000E-02 
   7.49500000E+00   -1.49981000E-01 
   2.79700000E+00   -1.27262000E-01 
   5.21500000E-01    5.44529000E-01 
S    1    1.000000
   1.59600000E-01    1.00000000E+00 
S    1    1.000000
   4.69000000E-02    1.00000000E+00 
P    3    1.000000
   9.43900000E+00    3.81090000E-02 
   2.00200000E+00    2.09480000E-01 
   5.45600000E-01    5.08557000E-01 
P    1    1.000000
   1.51700000E-01    1.00000000E+00 
P    1    1.000000
   4.04100000E-02    1.00000000E+00 
D    1    1.000000
   5.50000000E-01    1.00000000E+00 
D    1    1.000000
   1.51000000E-01    1.00000000E+00 

5    0
S    8    1.000000
   6.66500000E+03    6.92000000E-04 
   1.00000000E+03    5.32900000E-03 
   2.28000000E+02    2.70770000E-02 
   6.47100000E+01    1.01718000E-01 
   2.10600000E+01    2.74740000E-01 
   7.49500000E+00    4.48564000E-01 
   2.79700000E+00    2.85074000E-01 
   5.21500000E-01    1.52040000E-02 
S    8    1.000000
   6.66500000E+03   -1.46000000E-04 
   1.00000000E+03   -1.15400000E-03 
   2.28000000E+02   -5.72500000E-03 
   6.47100000E+01   -2.33120000E-02 
   2.10600000E+01   -6.39550000E-02 
   7.49500000E+00   -1.49981000E-01 
   2.79700000E+00   -1.27262000E-01 
   5.21500000E-01    5.44529000E-01 
S    1    1.000000
   1.59600000E-01    1.00000000E+00 
S    1    1.000000
   4.69000000E-02    1.00000000E+00 
P    3    1.000000
   9.43900000E+00    3.81090000E-02 
   2.00200000E+00    2.09480000E-01 
   5.45600000E-01    5.08557000E-01 
P    1    1.000000
   1.51700000E-01    1.00000000E+00 
P    1    1.000000
   4.04100000E-02    1.00000000E+00 
D    1    1.000000
   5.50000000E-01    1.00000000E+00 
D    1    1.000000
   1.51000000E-01    1.00000000E+00 

6    0
S    8    1.000000
   6.66500000E+03    6.92000000E-04 
   1.00000000E+03    5.32900000E-03 
   2.28000000E+02    2.70770000E-02 
   6.47100000E+01    1.01718000E-01 
   2.10600000E+01    2.74740000E-01 
   7.49500000E+00    4.48564000E-01 
   2.79700000E+00    2.85074000E-01 
   5.21500000E-01    1.52040000E-02 
S    8    1.000000
   6.66500000E+03   -1.46000000E-04 
   1.00000000E+03   -1.15400000E-03 
   2.28000000E+02   -5.72500000E-03 
   6.47100000E+01   -2.33120000E-02 
   2.10600000E+01   -6.39550000E-02 
   7.49500000E+00   -1.49981000E-01 
   2.79700000E+00   -1.27262000E-01 
   5.21500000E-01    5.44529000E-01 
S    1    1.000000
   1.59600000E-01    1.00000000E+00 
S    1    1.000000
   4.69000000E-02    1.00000000E+00 
P    3    1.000000
   9.43900000E+00    3.81090000E-02 
   2.00200000E+00    2.09480000E-01 
   5.45600000E-01    5.08557000E-01 
P    1    1.000000
   1.51700000E-01    1.00000000E+00 
P    1    1.000000
   4.04100000E-02    1.00000000E+00 
D    1    1.000000
   5.50000000E-01    1.00000000E+00 
D    1    1.000000
   1.51000000E-01    1.00000000E+00 

7    0
S    8    1.000000
   9.04600000E+03    7.00000000E-04 
   1.35700000E+03    5.38900000E-03 
   3.09300000E+02    2.74060000E-02 
   8.77300000E+01    1.03207000E-01 
   2.85600000E+01    2.78723000E-01 
   1.02100000E+01    4.48540000E-01 
   3.83800000E+00    2.78238000E-01 
   7.46600000E-01    1.54400000E-02 
S    8    1.000000
   9.04600000E+03   -1.53000000E-04 
   1.35700000E+03   -1.20800000E-03 
   3.09300000E+02   -5.99200000E-03 
   8.77300000E+01   -2.45440000E-02 
   2.85600000E+01   -6.74590000E-02 
   1.02100000E+01   -1.58078000E-01 
   3.83800000E+00   -1.21831000E-01 
   7.46600000E-01    5.49003000E-01 
S    1    1.000000
   2.24800000E-01    1.00000000E+00 
S    1    1.000000
   6.12400000E-02    1.00000000E+00 
P    3    1.000000
   1.35500000E+01    3.99190000E-02 
   2.91700000E+00    2.17169000E-01 
   7.97300000E-01    5.10319000E-01 
P    1    1.000000
   2.18500000E-01    1.00000000E+00 
P    1    1.000000
   5.61100000E-02    1.00000000E+00 
D    1    1.000000
   8.17000000E-01    1.00000000E+00 
D    1    1.000000
   2.30000000E-01    1.00000000E+00 

8    0
S    8    1.000000
   9.04600000E+03    7.00000000E-04 
   1.35700000E+03    5.38900000E-03 
   3.09300000E+02    2.74060000E-02 
   8.77300000E+01    1.03207000E-01 
   2.85600000E+01    2.78723000E-01 
   1.02100000E+01    4.48540000E-01 
   3.83800000E+00    2.78238000E-01 
   7.46600000E-01    1.54400000E-02 
S    8    1.000000
   9.04600000E+03   -1.53000000E-04 
   1.35700000E+03   -1.20800000E-03 
   3.09300000E+02   -5.99200000E-03 
   8.77300000E+01   -2.45440000E-02 
   2.85600000E+01   -6.74590000E-02 
   1.02100000E+01   -1.58078000E-01 
   3.83800000E+00   -1.21831000E-01 
   7.46600000E-01    5.49003000E-01 
S    1    1.000000
   2.24800000E-01    1.00000000E+00 
S    1    1.000000
   6.12400000E-02    1.00000000E+00 
P    3    1.000000
   1.35500000E+01    3.99190000E-02 
   2.91700000E+00    2.17169000E-01 
   7.97300000E-01    5.10319000E-01 
P    1    1.000000
   2.18500000E-01    1.00000000E+00 
P    1    1.000000
   5.61100000E-02    1.00000000E+00 
D    1    1.000000
   8.17000000E-01    1.00000000E+00 
D    1    1.000000
   2.30000000E-01    1.00000000E+00 

9    0
S    8    1.000000
   6.66500000E+03    6.92000000E-04 
   1.00000000E+03    5.32900000E-03 
   2.28000000E+02    2.70770000E-02 
   6.47100000E+01    1.01718000E-01 
   2.10600000E+01    2.74740000E-01 
   7.49500000E+00    4.48564000E-01 
   2.79700000E+00    2.85074000E-01 
   5.21500000E-01    1.52040000E-02 
S    8    1.000000
   6.66500000E+03   -1.46000000E-04 
   1.00000000E+03   -1.15400000E-03 
   2.28000000E+02   -5.72500000E-03 
   6.47100000E+01   -2.33120000E-02 
   2.10600000E+01   -6.39550000E-02 
   7.49500000E+00   -1.49981000E-01 
   2.79700000E+00   -1.27262000E-01 
   5.21500000E-01    5.44529000E-01 
S    1    1.000000
   1.59600000E-01    1.00000000E+00 
S    1    1.000000
   4.69000000E-02    1.00000000E+00 
P    3    1.000000
   9.43900000E+00    3.81090000E-02 
   2.00200000E+00    2.09480000E-01 
   5.45600000E-01    5.08557000E-01 
P    1    1.000000
   1.51700000E-01    1.00000000E+00 
P    1    1.000000
   4.04100000E-02    1.00000000E+00 
D    1    1.000000
   5.50000000E-01    1.00000000E+00 
D    1    1.000000
   1.51000000E-01    1.00000000E+00 

10    0
S    8    1.000000
   6.66500000E+03    6.92000000E-04 
   1.00000000E+03    5.32900000E-03 
   2.28000000E+02    2.70770000E-02 
   6.47100000E+01    1.01718000E-01 
   2.10600000E+01    2.74740000E-01 
   7.49500000E+00    4.48564000E-01 
   2.79700000E+00    2.85074000E-01 
   5.21500000E-01    1.52040000E-02 
S    8    1.000000
   6.66500000E+03   -1.46000000E-04 
   1.00000000E+03   -1.15400000E-03 
   2.28000000E+02   -5.72500000E-03 
   6.47100000E+01   -2.33120000E-02 
   2.10600000E+01   -6.39550000E-02 
   7.49500000E+00   -1.49981000E-01 
   2.79700000E+00   -1.27262000E-01 
   5.21500000E-01    5.44529000E-01 
S    1    1.000000
   1.59600000E-01    1.00000000E+00 
S    1    1.000000
   4.69000000E-02    1.00000000E+00 
P    3    1.000000
   9.43900000E+00    3.81090000E-02 
   2.00200000E+00    2.09480000E-01 
   5.45600000E-01    5.08557000E-01 
P    1    1.000000
   1.51700000E-01    1.00000000E+00 
P    1    1.000000
   4.04100000E-02    1.00000000E+00 
D    1    1.000000
   5.50000000E-01    1.00000000E+00 
D    1    1.000000
   1.51000000E-01    1.00000000E+00 

11    0
S    8    1.000000
   6.66500000E+03    6.92000000E-04 
   1.00000000E+03    5.32900000E-03 
   2.28000000E+02    2.70770000E-02 
   6.47100000E+01    1.01718000E-01 
   2.10600000E+01    2.74740000E-01 
   7.49500000E+00    4.48564000E-01 
   2.79700000E+00    2.85074000E-01 
   5.21500000E-01    1.52040000E-02 
S    8    1.000000
   6.66500000E+03   -1.46000000E-04 
   1.00000000E+03   -1.15400000E-03 
   2.28000000E+02   -5.72500000E-03 
   6.47100000E+01   -2.33120000E-02 
   2.10600000E+01   -6.39550000E-02 
   7.49500000E+00   -1.49981000E-01 
   2.79700000E+00   -1.27262000E-01 
   5.21500000E-01    5.44529000E-01 
S    1    1.000000
   1.59600000E-01    1.00000000E+00 
S    1    1.000000
   4.69000000E-02    1.00000000E+00 
P    3    1.000000
   9.43900000E+00    3.81090000E-02 
   2.00200000E+00    2.09480000E-01 
   5.45600000E-01    5.08557000E-01 
P    1    1.000000
   1.51700000E-01    1.00000000E+00 
P    1    1.000000
   4.04100000E-02    1.00000000E+00 
D    1    1.000000
   5.50000000E-01    1.00000000E+00 
D    1    1.000000
   1.51000000E-01    1.00000000E+00 

12    0
S    8    1.000000
   6.66500000E+03    6.92000000E-04 
   1.00000000E+03    5.32900000E-03 
   2.28000000E+02    2.70770000E-02 
   6.47100000E+01    1.01718000E-01 
   2.10600000E+01    2.74740000E-01 
   7.49500000E+00    4.48564000E-01 
   2.79700000E+00    2.85074000E-01 
   5.21500000E-01    1.52040000E-02 
S    8    1.000000
   6.66500000E+03   -1.46000000E-04 
   1.00000000E+03   -1.15400000E-03 
   2.28000000E+02   -5.72500000E-03 
   6.47100000E+01   -2.33120000E-02 
   2.10600000E+01   -6.39550000E-02 
   7.49500000E+00   -1.49981000E-01 
   2.79700000E+00   -1.27262000E-01 
   5.21500000E-01    5.44529000E-01 
S    1    1.000000
   1.59600000E-01    1.00000000E+00 
S    1    1.000000
   4.69000000E-02    1.00000000E+00 
P    3    1.000000
   9.43900000E+00    3.81090000E-02 
   2.00200000E+00    2.09480000E-01 
   5.45600000E-01    5.08557000E-01 
P    1    1.000000
   1.51700000E-01    1.00000000E+00 
P    1    1.000000
   4.04100000E-02    1.00000000E+00 
D    1    1.000000
   5.50000000E-01    1.00000000E+00 
D    1    1.000000
   1.51000000E-01    1.00000000E+00 

13    0
S    8    1.000000
   6.66500000E+03    6.92000000E-04 
   1.00000000E+03    5.32900000E-03 
   2.28000000E+02    2.70770000E-02 
   6.47100000E+01    1.01718000E-01 
   2.10600000E+01    2.74740000E-01 
   7.49500000E+00    4.48564000E-01 
   2.79700000E+00    2.85074000E-01 
   5.21500000E-01    1.52040000E-02 
S    8    1.000000
   6.66500000E+03   -1.46000000E-04 
   1.00000000E+03   -1.15400000E-03 
   2.28000000E+02   -5.72500000E-03 
   6.47100000E+01   -2.33120000E-02 
   2.10600000E+01   -6.39550000E-02 
   7.49500000E+00   -1.49981000E-01 
   2.79700000E+00   -1.27262000E-01 
   5.21500000E-01    5.44529000E-01 
S    1    1.000000
   1.59600000E-01    1.00000000E+00 
S    1    1.000000
   4.69000000E-02    1.00000000E+00 
P    3    1.000000
   9.43900000E+00    3.81090000E-02 
   2.00200000E+00    2.09480000E-01 
   5.45600000E-01    5.08557000E-01 
P    1    1.000000
   1.51700000E-01    1.00000000E+00 
P    1    1.000000
   4.04100000E-02    1.00000000E+00 
D    1    1.000000
   5.50000000E-01    1.00000000E+00 
D    1    1.000000
   1.51000000E-01    1.00000000E+00 

14    0
S    8    1.000000
   6.66500000E+03    6.92000000E-04 
   1.00000000E+03    5.32900000E-03 
   2.28000000E+02    2.70770000E-02 
   6.47100000E+01    1.01718000E-01 
   2.10600000E+01    2.74740000E-01 
   7.49500000E+00    4.48564000E-01 
   2.79700000E+00    2.85074000E-01 
   5.21500000E-01    1.52040000E-02 
S    8    1.000000
   6.66500000E+03   -1.46000000E-04 
   1.00000000E+03   -1.15400000E-03 
   2.28000000E+02   -5.72500000E-03 
   6.47100000E+01   -2.33120000E-02 
   2.10600000E+01   -6.39550000E-02 
   7.49500000E+00   -1.49981000E-01 
   2.79700000E+00   -1.27262000E-01 
   5.21500000E-01    5.44529000E-01 
S    1    1.000000
   1.59600000E-01    1.00000000E+00 
S    1    1.000000
   4.69000000E-02    1.00000000E+00 
P    3    1.000000
   9.43900000E+00    3.81090000E-02 
   2.00200000E+00    2.09480000E-01 
   5.45600000E-01    5.08557000E-01 
P    1    1.000000
   1.51700000E-01    1.00000000E+00 
P    1    1.000000
   4.04100000E-02    1.00000000E+00 
D    1    1.000000
   5.50000000E-01    1.00000000E+00 
D    1    1.000000
   1.51000000E-01    1.00000000E+00 

15    0
S    3    1.000000
   1.30100000E+01    1.96850000E-02 
   1.96200000E+00    1.37977000E-01 
   4.44600000E-01    4.78148000E-01 
S    1    1.000000
   1.22000000E-01    1.00000000E+00 
S    1    1.000000
   2.97400000E-02    1.00000000E+00 
P    1    1.000000
   7.27000000E-01    1.00000000E+00 
P    1    1.000000
   1.41000000E-01    1.00000000E+00 

16    0
S    3    1.000000
   1.30100000E+01    1.96850000E-02 
   1.96200000E+00    1.37977000E-01 
   4.44600000E-01    4.78148000E-01 
S    1    1.000000
   1.22000000E-01    1.00000000E+00 
S    1    1.000000
   2.97400000E-02    1.00000000E+00 
P    1    1.000000
   7.27000000E-01    1.00000000E+00 
P    1    1.000000
   1.41000000E-01    1.00000000E+00 

17    0
S    3    1.000000
   1.30100000E+01    1.96850000E-02 
   1.96200000E+00    1.37977000E-01 
   4.44600000E-01    4.78148000E-01 
S    1    1.000000
   1.22000000E-01    1.00000000E+00 
S    1    1.000000
   2.97400000E-02    1.00000000E+00 
P    1    1.000000
   7.27000000E-01    1.00000000E+00 
P    1    1.000000
   1.41000000E-01    1.00000000E+00 

18    0
S    3    1.000000
   1.30100000E+01    1.96850000E-02 
   1.96200000E+00    1.37977000E-01 
   4.44600000E-01    4.78148000E-01 
S    1    1.000000
   1.22000000E-01    1.00000000E+00 
S    1    1.000000
   2.97400000E-02    1.00000000E+00 
P    1    1.000000
   7.27000000E-01    1.00000000E+00 
P    1    1.000000
   1.41000000E-01    1.00000000E+00 

19    0
S    3    1.000000
   1.30100000E+01    1.96850000E-02 
   1.96200000E+00    1.37977000E-01 
   4.44600000E-01    4.78148000E-01 
S    1    1.000000
   1.22000000E-01    1.00000000E+00 
S    1    1.000000
   2.97400000E-02    1.00000000E+00 
P    1    1.000000
   7.27000000E-01    1.00000000E+00 
P    1    1.000000
   1.41000000E-01    1.00000000E+00 

20    0
S    3    1.000000
   1.30100000E+01    1.96850000E-02 
   1.96200000E+00    1.37977000E-01 
   4.44600000E-01    4.78148000E-01 
S    1    1.000000
   1.22000000E-01    1.00000000E+00 
S    1    1.000000
   2.97400000E-02    1.00000000E+00 
P    1    1.000000
   7.27000000E-01    1.00000000E+00 
P    1    1.000000
   1.41000000E-01    1.00000000E+00 

21    0
S    3    1.000000
   1.30100000E+01    1.96850000E-02 
   1.96200000E+00    1.37977000E-01 
   4.44600000E-01    4.78148000E-01 
S    1    1.000000
   1.22000000E-01    1.00000000E+00 
S    1    1.000000
   2.97400000E-02    1.00000000E+00 
P    1    1.000000
   7.27000000E-01    1.00000000E+00 
P    1    1.000000
   1.41000000E-01    1.00000000E+00 

22    0
S    3    1.000000
   1.30100000E+01    1.96850000E-02 
   1.96200000E+00    1.37977000E-01 
   4.44600000E-01    4.78148000E-01 
S    1    1.000000
   1.22000000E-01    1.00000000E+00 
S    1    1.000000
   2.97400000E-02    1.00000000E+00 
P    1    1.000000
   7.27000000E-01    1.00000000E+00 
P    1    1.000000
   1.41000000E-01    1.00000000E+00 

23    0
S    3    1.000000
   1.30100000E+01    1.96850000E-02 
   1.96200000E+00    1.37977000E-01 
   4.44600000E-01    4.78148000E-01 
S    1    1.000000
   1.22000000E-01    1.00000000E+00 
S    1    1.000000
   2.97400000E-02    1.00000000E+00 
P    1    1.000000
   7.27000000E-01    1.00000000E+00 
P    1    1.000000
   1.41000000E-01    1.00000000E+00 

24    0
S    8    1.000000
   1.17200000E+04    7.10000000E-04 
   1.75900000E+03    5.47000000E-03 
   4.00800000E+02    2.78370000E-02 
   1.13700000E+02    1.04800000E-01 
   3.70300000E+01    2.83062000E-01 
   1.32700000E+01    4.48719000E-01 
   5.02500000E+00    2.70952000E-01 
   1.01300000E+00    1.54580000E-02 
S    8    1.000000
   1.17200000E+04   -1.60000000E-04 
   1.75900000E+03   -1.26300000E-03 
   4.00800000E+02   -6.26700000E-03 
   1.13700000E+02   -2.57160000E-02 
   3.70300000E+01   -7.09240000E-02 
   1.32700000E+01   -1.65411000E-01 
   5.02500000E+00   -1.16955000E-01 
   1.01300000E+00    5.57368000E-01 
S    1    1.000000
   3.02300000E-01    1.00000000E+00 
S    1    1.000000
   7.89600000E-02    1.00000000E+00 
P    3    1.000000
   1.77000000E+01    4.30180000E-02 
   3.85400000E+00    2.28913000E-01 
   1.04600000E+00    5.08728000E-01 
P    1    1.000000
   2.75300000E-01    1.00000000E+00 
P    1    1.000000
   6.85600000E-02    1.00000000E+00 
D    1    1.000000
   1.18500000E+00    1.00000000E+00 
D    1    1.000000
   3.32000000E-01    1.00000000E+00 

25    0
S    15    1.000000
   6.34294000E+05    5.25596000E-05 
   8.13143400E+04    4.98068000E-04 
   1.67647900E+04    2.91602000E-03 
   4.42973000E+03    1.30856000E-02 
   1.37198800E+03    4.81108000E-02 
   4.75488100E+02    1.42721000E-01 
   1.79307600E+02    3.14824000E-01 
   7.24040900E+01    4.06967000E-01 
   3.06589900E+01    2.07434000E-01 
   9.83698700E+00    1.66181000E-02 
   3.99945900E+00   -2.56523000E-03 
   1.02701000E+00    8.39702000E-04 
   4.26654600E-01   -4.47647000E-04 
   6.36336500E-02    1.20064000E-04 
   2.62631700E-02   -6.04079000E-05 
S    15    1.000000
   6.34294000E+05   -1.52182000E-05 
   8.13143400E+04   -1.45233000E-04 
   1.67647900E+04   -8.43929000E-04 
   4.42973000E+03   -3.86276000E-03 
   1.37198800E+03   -1.42692000E-02 
   4.75488100E+02   -4.57714000E-02 
   1.79307600E+02   -1.12259000E-01 
   7.24040900E+01   -2.09337000E-01 
   3.06589900E+01   -1.18169000E-01 
   9.83698700E+00    4.98551000E-01 
   3.99945900E+00    6.14790000E-01 
   1.02701000E+00    5.89238000E-02 
   4.26654600E-01   -1.34539000E-02 
   6.36336500E-02    3.29146000E-03 
   2.62631700E-02   -1.62419000E-03 
S    15    1.000000
   6.34294000E+05    5.25601000E-06 
   8.13143400E+04    4.99945000E-05 
   1.67647900E+04    2.91984000E-04 
   4.42973000E+03    1.32884000E-03 
   1.37198800E+03    4.96095000E-03 
   4.75488100E+02    1.58367000E-02 
   1.79307600E+02    4.00138000E-02 
   7.24040900E+01    7.55025000E-02 
   3.06589900E+01    4.88318000E-02 
   9.83698700E+00   -2.53013000E-01 
   3.99945900E+00   -4.80449000E-01 
   1.02701000E+00    5.65877000E-01 
   4.26654600E-01    6.58327000E-01 
   6.36336500E-02    2.59175000E-02 
   2.62631700E-02   -9.51307000E-03 
S    15    1.000000
   6.34294000E+05   -1.25738000E-06 
   8.13143400E+04   -1.19254000E-05 
   1.67647900E+04   -6.99428000E-05 
   4.42973000E+03   -3.16569000E-04 
   1.37198800E+03   -1.19073000E-03 
   4.75488100E+02   -3.76860000E-03 
   1.79307600E+02   -9.66122000E-03 
   7.24040900E+01   -1.79561000E-02 
   3.06589900E+01   -1.23463000E-02 
   9.83698700E+00    6.48503000E-02 
   3.99945900E+00    1.24213000E-01 
   1.02701000E+00   -1.73178000E-01 
   4.26654600E-01   -3.79988000E-01 
   6.36336500E-02    6.57570000E-01 
   2.62631700E-02    4.93284000E-01 
S    1    1.000000
   2.62631700E-02    1.00000000E+00 
S    1    1.000000
   1.08400000E-02    1.00000000E+00 
P    11    1.000000
   1.23652800E+03    1.61050000E-03 
   2.77429200E+02    1.43720000E-02 
   8.65134700E+01    7.15876000E-02 
   3.16262200E+01    2.25429000E-01 
   1.25001500E+01    4.25126000E-01 
   5.13409400E+00    3.81133000E-01 
   2.00896800E+00    8.27503000E-02 
   8.38153900E-01   -3.63253000E-03 
   3.37704100E-01    1.84741000E-03 
   8.07092900E-02   -5.24557000E-04 
   2.90333400E-02    2.02329000E-04 
P    11    1.000000
   1.23652800E+03   -5.26787000E-04 
   2.77429200E+02   -4.70480000E-03 
   8.65134700E+01   -2.40594000E-02 
   3.16262200E+01   -7.80806000E-02 
   1.25001500E+01   -1.57752000E-01 
   5.13409400E+00   -1.34782000E-01 
   2.00896800E+00    2.24136000E-01 
   8.38153900E-01    5.57516000E-01 
   3.37704100E-01    3.56789000E-01 
   8.07092900E-02    2.69438000E-02 
   2.90333400E-02   -4.96010000E-03 
P    11    1.000000
   1.23652800E+03    1.10310000E-04 
   2.77429200E+02    9.78122000E-04 
   8.65134700E+01    5.05273000E-03 
   3.16262200E+01    1.62816000E-02 
   1.25001500E+01    3.36093000E-02 
   5.13409400E+00    2.72352000E-02 
   2.00896800E+00   -5.25284000E-02 
   8.38153900E-01   -1.46018000E-01 
   3.37704100E-01   -1.07776000E-01 
   8.07092900E-02    5.04039000E-01 
   2.90333400E-02    6.07438000E-01 
P    1    1.000000
   2.90333400E-02    1.00000000E+00 
P    1    1.000000
   1.04400000E-02    1.00000000E+00 
D    5    1.000000
   9.70927900E+00    3.52030000E-02 
   2.42484600E+00    1.55891000E-01 
   7.01808100E-01    3.18767000E-01 
   1.87739100E-01    4.62295000E-01 
   4.81882700E-02    4.61675000E-01 
D    1    1.000000
   4.81882700E-02    1.00000000E+00 
D    1    1.000000
   1.92800000E-02    1.00000000E+00 

[MO]
Sym=X
Ene= 1.000025
Spin=Alpha
Occup=1
     1    2.593950426223e-10
     2    4.274096136774e-10
     3   -1.056157675674e-08
     4    7.262555567981e-08
     5    9.598202339692e-11
     6   -2.283356317000e-10
     7    2.651915793870e-01
     8   -7.177906967560e-08
     9    3.640360643877e-08
    10    1.964904321862e-01
    11    5.186489540418e-09
    12   -9.092860632460e-09
    13    3.108211159639e-02
    14    8.911173120466e-11
    15   -2.206636755163e-02
    16   -1.468902426675e-03
    17    1.454215884209e-10
    18    9.465208991852e-11
    19    1.059053864071e-09
    20   -7.408331610896e-04
    21   -3.801533147607e-03
    22    1.603966190440e-08
    23    2.597480662285e-08
    24   -7.608461651417e-11
    25   -8.375842424441e-11
    26    1.811642420848e-08
    27   -8.163923869807e-08
    28   -4.344829902693e-11
    29    9.427379993246e-11
    30    3.078127262164e-01
    31   -7.000551086289e-08
    32   -7.566914112149e-08
    33    2.234281919878e-01
    34   -2.181196522581e-09
    35    7.165724862991e-09
    36    2.963901248047e-02
    37   -9.354138870533e-11
    38    1.699833393717e-02
    39   -4.034556687280e-03
    40   -2.433539649719e-10
    41    3.954495385965e-11
    42   -2.256290593788e-09
    43    7.480922954563e-03
    44    3.652379990376e-03
    45   -2.456640051934e-08
    46    2.923756648481e-08
    47    2.961879848462e-10
    48    4.061398849422e-10
    49   -1.571310217272e-08
    50   -3.203867272118e-08
    51   -2.766400949397e-11
    52   -2.319489822486e-11
    53   -4.004554410321e-02
    54    2.028680321372e-09
    55    1.091149327193e-07
    56   -3.400555485434e-02
    57    1.185075716878e-08
    58   -1.735542248007e-08
    59   -5.406906318341e-03
    60    6.537951275646e-11
    61   -2.006528020956e-03
    62    3.034386131638e-02
    63    4.756920234548e-11
    64   -3.400902919456e-10
    65    3.380558661946e-10
    66    1.441262677073e-03
    67    1.796928492601e-03
    68    7.957405721041e-09
    69   -3.175205619006e-08
    70    1.498755558074e-10
    71    3.009845914510e-10
    72   -5.578900698585e-09
    73    1.256682998359e-08
    74   -1.486269758216e-11
    75   -4.734331448695e-11
    76   -2.876047109648e-01
    77    8.679442206253e-08
    78    7.827711326909e-08
    79   -2.125257763119e-01
    80   -1.711017358256e-08
    81    2.914208410214e-09
    82   -3.697629279310e-02
    83   -5.529099819454e-11
    84    1.490383624173e-02
    85   -2.457947412925e-03
    86   -3.188505776434e-10
    87    7.787085759323e-11
    88    3.360065427506e-11
    89   -1.555008895459e-04
    90   -2.388376810652e-03
    91   -3.225472067858e-08
    92    1.235272164970e-08
    93    1.766706418466e-10
    94    3.128087392512e-10
    95   -2.304025838083e-09
    96   -7.069336980833e-08
    97   -1.433122499955e-10
    98    1.327688243238e-10
    99   -2.356990194846e-01
   100    9.037136259664e-08
   101   -3.795391681930e-08
   102   -1.795811305468e-01
   103    1.217434578927e-09
   104   -7.624272958942e-09
   105   -2.060466597292e-02
   106   -5.206439619125e-11
   107   -2.076068165701e-02
   108   -3.684050123979e-04
   109    1.626182832237e-10
   110    1.904199708043e-10
   111   -4.565184042988e-10
   112   -9.286938345077e-03
   113   -4.142396017324e-03
   114    3.369821599791e-08
   115    1.429979272121e-08
   116    5.351630812808e-10
   117    8.409287705239e-10
   118   -3.133166076465e-08
   119    1.408392274911e-07
   120    3.116237375101e-11
   121    6.460685921695e-11
   122    5.798201334894e-02
   123    1.639210180796e-08
   124   -1.130590789311e-07
   125    4.382415184066e-02
   126   -9.537865892252e-09
   127    3.935431707094e-09
   128    4.374442188673e-03
   129    5.755556988257e-11
   130   -8.537330925528e-04
   131    3.069365371519e-02
   132   -5.811181706355e-11
   133   -3.028695177722e-10
   134    2.591225597197e-09
   135    8.210590982000e-03
   136    1.075060631483e-02
   137    2.233536432115e-08
   138   -3.108303327460e-08
   139    1.497412360930e-10
   140    2.660947218525e-10
   141   -8.356681811183e-09
   142   -2.660371325399e-08
   143   -3.083434429196e-11
   144    1.262170793271e-12
   145    4.272946918388e-03
   146    4.003778022616e-09
   147   -5.906976655185e-09
   148    3.533935961343e-03
   149   -3.336702447988e-08
   150   -2.161545123488e-09