[Molden Format]
[Atoms] (Angs)
  C      1    6      5.38708610      1.19101114     -0.00000000
  C      2    6      3.99189070      1.06071126     -0.00000000
  C      3    6      6.21309044      0.04921471      0.00000000
  C      4    6      5.63456771     -1.23001120      0.00000000
  C      5    6      4.23545543     -1.36536687      0.00000000
  C      6    6      3.41393550     -0.22601998      0.00000000
  N      7    7      1.99796605     -0.48702359      0.00000000
  N      8    7      1.29679689      0.55718855     -0.00000000
  C      9    6     -0.11397051      0.31959694     -0.00000000
  C     10    6     -0.92868597      1.46447214     -0.00000000
  C     11    6     -2.32567437      1.35269118      0.00000000
  C     12    6     -2.94457877      0.08020355     -0.00000000
  C     13    6     -2.10990697     -1.07107689      0.00000000
  C     14    6     -0.71875824     -0.95680710     -0.00000000
  H     15    1      5.83777935      2.19011218     -0.00000000
  H     16    1      3.33801096      1.93660822     -0.00000000
  H     17    1      7.30322960      0.16059225     -0.00000000
  H     18    1      6.26985689     -2.12272736      0.00000000
  H     19    1      3.75657799     -2.35020309      0.00000000
  H     20    1     -0.44330594      2.44685805     -0.00000000
  H     21    1     -2.95781245      2.24776347      0.00000000
  H     22    1     -2.58563428     -2.05875591      0.00000000
  H     23    1     -0.08171270     -1.84587005     -0.00000000
  O     24    8     -4.27956295     -0.04243733     -0.00000000
 Ca     25   20     -6.38352663     -0.23838735     -0.00000000
[GTO]
1    0
S    8    1.000000
   6.66500000E+03    6.92000000E-04 
   1.00000000E+03    5.32900000E-03 
   2.28000000E+02    2.70770000E-02 
   6.47100000E+01    1.01718000E-01 
   2.10600000E+01    2.74740000E-01 
   7.49500000E+00    4.48564000E-01 
   2.79700000E+00    2.85074000E-01 
   5.21500000E-01    1.52040000E-02 
S    8    1.000000
   6.66500000E+03   -1.46000000E-04 
   1.00000000E+03   -1.15400000E-03 
   2.28000000E+02   -5.72500000E-03 
   6.47100000E+01   -2.33120000E-02 
   2.10600000E+01   -6.39550000E-02 
   7.49500000E+00   -1.49981000E-01 
   2.79700000E+00   -1.27262000E-01 
   5.21500000E-01    5.44529000E-01 
S    1    1.000000
   1.59600000E-01    1.00000000E+00 
S    1    1.000000
   4.69000000E-02    1.00000000E+00 
P    3    1.000000
   9.43900000E+00    3.81090000E-02 
   2.00200000E+00    2.09480000E-01 
   5.45600000E-01    5.08557000E-01 
P    1    1.000000
   1.51700000E-01    1.00000000E+00 
P    1    1.000000
   4.04100000E-02    1.00000000E+00 
D    1    1.000000
   5.50000000E-01    1.00000000E+00 
D    1    1.000000
   1.51000000E-01    1.00000000E+00 

2    0
S    8    1.000000
   6.66500000E+03    6.92000000E-04 
   1.00000000E+03    5.32900000E-03 
   2.28000000E+02    2.70770000E-02 
   6.47100000E+01    1.01718000E-01 
   2.10600000E+01    2.74740000E-01 
   7.49500000E+00    4.48564000E-01 
   2.79700000E+00    2.85074000E-01 
   5.21500000E-01    1.52040000E-02 
S    8    1.000000
   6.66500000E+03   -1.46000000E-04 
   1.00000000E+03   -1.15400000E-03 
   2.28000000E+02   -5.72500000E-03 
   6.47100000E+01   -2.33120000E-02 
   2.10600000E+01   -6.39550000E-02 
   7.49500000E+00   -1.49981000E-01 
   2.79700000E+00   -1.27262000E-01 
   5.21500000E-01    5.44529000E-01 
S    1    1.000000
   1.59600000E-01    1.00000000E+00 
S    1    1.000000
   4.69000000E-02    1.00000000E+00 
P    3    1.000000
   9.43900000E+00    3.81090000E-02 
   2.00200000E+00    2.09480000E-01 
   5.45600000E-01    5.08557000E-01 
P    1    1.000000
   1.51700000E-01    1.00000000E+00 
P    1    1.000000
   4.04100000E-02    1.00000000E+00 
D    1    1.000000
   5.50000000E-01    1.00000000E+00 
D    1    1.000000
   1.51000000E-01    1.00000000E+00 

3    0
S    8    1.000000
   6.66500000E+03    6.92000000E-04 
   1.00000000E+03    5.32900000E-03 
   2.28000000E+02    2.70770000E-02 
   6.47100000E+01    1.01718000E-01 
   2.10600000E+01    2.74740000E-01 
   7.49500000E+00    4.48564000E-01 
   2.79700000E+00    2.85074000E-01 
   5.21500000E-01    1.52040000E-02 
S    8    1.000000
   6.66500000E+03   -1.46000000E-04 
   1.00000000E+03   -1.15400000E-03 
   2.28000000E+02   -5.72500000E-03 
   6.47100000E+01   -2.33120000E-02 
   2.10600000E+01   -6.39550000E-02 
   7.49500000E+00   -1.49981000E-01 
   2.79700000E+00   -1.27262000E-01 
   5.21500000E-01    5.44529000E-01 
S    1    1.000000
   1.59600000E-01    1.00000000E+00 
S    1    1.000000
   4.69000000E-02    1.00000000E+00 
P    3    1.000000
   9.43900000E+00    3.81090000E-02 
   2.00200000E+00    2.09480000E-01 
   5.45600000E-01    5.08557000E-01 
P    1    1.000000
   1.51700000E-01    1.00000000E+00 
P    1    1.000000
   4.04100000E-02    1.00000000E+00 
D    1    1.000000
   5.50000000E-01    1.00000000E+00 
D    1    1.000000
   1.51000000E-01    1.00000000E+00 

4    0
S    8    1.000000
   6.66500000E+03    6.92000000E-04 
   1.00000000E+03    5.32900000E-03 
   2.28000000E+02    2.70770000E-02 
   6.47100000E+01    1.01718000E-01 
   2.10600000E+01    2.74740000E-01 
   7.49500000E+00    4.48564000E-01 
   2.79700000E+00    2.85074000E-01 
   5.21500000E-01    1.52040000E-02 
S    8    1.000000
   6.66500000E+03   -1.46000000E-04 
   1.00000000E+03   -1.15400000E-03 
   2.28000000E+02   -5.72500000E-03 
   6.47100000E+01   -2.33120000E-02 
   2.10600000E+01   -6.39550000E-02 
   7.49500000E+00   -1.49981000E-01 
   2.79700000E+00   -1.27262000E-01 
   5.21500000E-01    5.44529000E-01 
S    1    1.000000
   1.59600000E-01    1.00000000E+00 
S    1    1.000000
   4.69000000E-02    1.00000000E+00 
P    3    1.000000
   9.43900000E+00    3.81090000E-02 
   2.00200000E+00    2.09480000E-01 
   5.45600000E-01    5.08557000E-01 
P    1    1.000000
   1.51700000E-01    1.00000000E+00 
P    1    1.000000
   4.04100000E-02    1.00000000E+00 
D    1    1.000000
   5.50000000E-01    1.00000000E+00 
D    1    1.000000
   1.51000000E-01    1.00000000E+00 

5    0
S    8    1.000000
   6.66500000E+03    6.92000000E-04 
   1.00000000E+03    5.32900000E-03 
   2.28000000E+02    2.70770000E-02 
   6.47100000E+01    1.01718000E-01 
   2.10600000E+01    2.74740000E-01 
   7.49500000E+00    4.48564000E-01 
   2.79700000E+00    2.85074000E-01 
   5.21500000E-01    1.52040000E-02 
S    8    1.000000
   6.66500000E+03   -1.46000000E-04 
   1.00000000E+03   -1.15400000E-03 
   2.28000000E+02   -5.72500000E-03 
   6.47100000E+01   -2.33120000E-02 
   2.10600000E+01   -6.39550000E-02 
   7.49500000E+00   -1.49981000E-01 
   2.79700000E+00   -1.27262000E-01 
   5.21500000E-01    5.44529000E-01 
S    1    1.000000
   1.59600000E-01    1.00000000E+00 
S    1    1.000000
   4.69000000E-02    1.00000000E+00 
P    3    1.000000
   9.43900000E+00    3.81090000E-02 
   2.00200000E+00    2.09480000E-01 
   5.45600000E-01    5.08557000E-01 
P    1    1.000000
   1.51700000E-01    1.00000000E+00 
P    1    1.000000
   4.04100000E-02    1.00000000E+00 
D    1    1.000000
   5.50000000E-01    1.00000000E+00 
D    1    1.000000
   1.51000000E-01    1.00000000E+00 

6    0
S    8    1.000000
   6.66500000E+03    6.92000000E-04 
   1.00000000E+03    5.32900000E-03 
   2.28000000E+02    2.70770000E-02 
   6.47100000E+01    1.01718000E-01 
   2.10600000E+01    2.74740000E-01 
   7.49500000E+00    4.48564000E-01 
   2.79700000E+00    2.85074000E-01 
   5.21500000E-01    1.52040000E-02 
S    8    1.000000
   6.66500000E+03   -1.46000000E-04 
   1.00000000E+03   -1.15400000E-03 
   2.28000000E+02   -5.72500000E-03 
   6.47100000E+01   -2.33120000E-02 
   2.10600000E+01   -6.39550000E-02 
   7.49500000E+00   -1.49981000E-01 
   2.79700000E+00   -1.27262000E-01 
   5.21500000E-01    5.44529000E-01 
S    1    1.000000
   1.59600000E-01    1.00000000E+00 
S    1    1.000000
   4.69000000E-02    1.00000000E+00 
P    3    1.000000
   9.43900000E+00    3.81090000E-02 
   2.00200000E+00    2.09480000E-01 
   5.45600000E-01    5.08557000E-01 
P    1    1.000000
   1.51700000E-01    1.00000000E+00 
P    1    1.000000
   4.04100000E-02    1.00000000E+00 
D    1    1.000000
   5.50000000E-01    1.00000000E+00 
D    1    1.000000
   1.51000000E-01    1.00000000E+00 

7    0
S    8    1.000000
   9.04600000E+03    7.00000000E-04 
   1.35700000E+03    5.38900000E-03 
   3.09300000E+02    2.74060000E-02 
   8.77300000E+01    1.03207000E-01 
   2.85600000E+01    2.78723000E-01 
   1.02100000E+01    4.48540000E-01 
   3.83800000E+00    2.78238000E-01 
   7.46600000E-01    1.54400000E-02 
S    8    1.000000
   9.04600000E+03   -1.53000000E-04 
   1.35700000E+03   -1.20800000E-03 
   3.09300000E+02   -5.99200000E-03 
   8.77300000E+01   -2.45440000E-02 
   2.85600000E+01   -6.74590000E-02 
   1.02100000E+01   -1.58078000E-01 
   3.83800000E+00   -1.21831000E-01 
   7.46600000E-01    5.49003000E-01 
S    1    1.000000
   2.24800000E-01    1.00000000E+00 
S    1    1.000000
   6.12400000E-02    1.00000000E+00 
P    3    1.000000
   1.35500000E+01    3.99190000E-02 
   2.91700000E+00    2.17169000E-01 
   7.97300000E-01    5.10319000E-01 
P    1    1.000000
   2.18500000E-01    1.00000000E+00 
P    1    1.000000
   5.61100000E-02    1.00000000E+00 
D    1    1.000000
   8.17000000E-01    1.00000000E+00 
D    1    1.000000
   2.30000000E-01    1.00000000E+00 

8    0
S    8    1.000000
   9.04600000E+03    7.00000000E-04 
   1.35700000E+03    5.38900000E-03 
   3.09300000E+02    2.74060000E-02 
   8.77300000E+01    1.03207000E-01 
   2.85600000E+01    2.78723000E-01 
   1.02100000E+01    4.48540000E-01 
   3.83800000E+00    2.78238000E-01 
   7.46600000E-01    1.54400000E-02 
S    8    1.000000
   9.04600000E+03   -1.53000000E-04 
   1.35700000E+03   -1.20800000E-03 
   3.09300000E+02   -5.99200000E-03 
   8.77300000E+01   -2.45440000E-02 
   2.85600000E+01   -6.74590000E-02 
   1.02100000E+01   -1.58078000E-01 
   3.83800000E+00   -1.21831000E-01 
   7.46600000E-01    5.49003000E-01 
S    1    1.000000
   2.24800000E-01    1.00000000E+00 
S    1    1.000000
   6.12400000E-02    1.00000000E+00 
P    3    1.000000
   1.35500000E+01    3.99190000E-02 
   2.91700000E+00    2.17169000E-01 
   7.97300000E-01    5.10319000E-01 
P    1    1.000000
   2.18500000E-01    1.00000000E+00 
P    1    1.000000
   5.61100000E-02    1.00000000E+00 
D    1    1.000000
   8.17000000E-01    1.00000000E+00 
D    1    1.000000
   2.30000000E-01    1.00000000E+00 

9    0
S    8    1.000000
   6.66500000E+03    6.92000000E-04 
   1.00000000E+03    5.32900000E-03 
   2.28000000E+02    2.70770000E-02 
   6.47100000E+01    1.01718000E-01 
   2.10600000E+01    2.74740000E-01 
   7.49500000E+00    4.48564000E-01 
   2.79700000E+00    2.85074000E-01 
   5.21500000E-01    1.52040000E-02 
S    8    1.000000
   6.66500000E+03   -1.46000000E-04 
   1.00000000E+03   -1.15400000E-03 
   2.28000000E+02   -5.72500000E-03 
   6.47100000E+01   -2.33120000E-02 
   2.10600000E+01   -6.39550000E-02 
   7.49500000E+00   -1.49981000E-01 
   2.79700000E+00   -1.27262000E-01 
   5.21500000E-01    5.44529000E-01 
S    1    1.000000
   1.59600000E-01    1.00000000E+00 
S    1    1.000000
   4.69000000E-02    1.00000000E+00 
P    3    1.000000
   9.43900000E+00    3.81090000E-02 
   2.00200000E+00    2.09480000E-01 
   5.45600000E-01    5.08557000E-01 
P    1    1.000000
   1.51700000E-01    1.00000000E+00 
P    1    1.000000
   4.04100000E-02    1.00000000E+00 
D    1    1.000000
   5.50000000E-01    1.00000000E+00 
D    1    1.000000
   1.51000000E-01    1.00000000E+00 

10    0
S    8    1.000000
   6.66500000E+03    6.92000000E-04 
   1.00000000E+03    5.32900000E-03 
   2.28000000E+02    2.70770000E-02 
   6.47100000E+01    1.01718000E-01 
   2.10600000E+01    2.74740000E-01 
   7.49500000E+00    4.48564000E-01 
   2.79700000E+00    2.85074000E-01 
   5.21500000E-01    1.52040000E-02 
S    8    1.000000
   6.66500000E+03   -1.46000000E-04 
   1.00000000E+03   -1.15400000E-03 
   2.28000000E+02   -5.72500000E-03 
   6.47100000E+01   -2.33120000E-02 
   2.10600000E+01   -6.39550000E-02 
   7.49500000E+00   -1.49981000E-01 
   2.79700000E+00   -1.27262000E-01 
   5.21500000E-01    5.44529000E-01 
S    1    1.000000
   1.59600000E-01    1.00000000E+00 
S    1    1.000000
   4.69000000E-02    1.00000000E+00 
P    3    1.000000
   9.43900000E+00    3.81090000E-02 
   2.00200000E+00    2.09480000E-01 
   5.45600000E-01    5.08557000E-01 
P    1    1.000000
   1.51700000E-01    1.00000000E+00 
P    1    1.000000
   4.04100000E-02    1.00000000E+00 
D    1    1.000000
   5.50000000E-01    1.00000000E+00 
D    1    1.000000
   1.51000000E-01    1.00000000E+00 

11    0
S    8    1.000000
   6.66500000E+03    6.92000000E-04 
   1.00000000E+03    5.32900000E-03 
   2.28000000E+02    2.70770000E-02 
   6.47100000E+01    1.01718000E-01 
   2.10600000E+01    2.74740000E-01 
   7.49500000E+00    4.48564000E-01 
   2.79700000E+00    2.85074000E-01 
   5.21500000E-01    1.52040000E-02 
S    8    1.000000
   6.66500000E+03   -1.46000000E-04 
   1.00000000E+03   -1.15400000E-03 
   2.28000000E+02   -5.72500000E-03 
   6.47100000E+01   -2.33120000E-02 
   2.10600000E+01   -6.39550000E-02 
   7.49500000E+00   -1.49981000E-01 
   2.79700000E+00   -1.27262000E-01 
   5.21500000E-01    5.44529000E-01 
S    1    1.000000
   1.59600000E-01    1.00000000E+00 
S    1    1.000000
   4.69000000E-02    1.00000000E+00 
P    3    1.000000
   9.43900000E+00    3.81090000E-02 
   2.00200000E+00    2.09480000E-01 
   5.45600000E-01    5.08557000E-01 
P    1    1.000000
   1.51700000E-01    1.00000000E+00 
P    1    1.000000
   4.04100000E-02    1.00000000E+00 
D    1    1.000000
   5.50000000E-01    1.00000000E+00 
D    1    1.000000
   1.51000000E-01    1.00000000E+00 

12    0
S    8    1.000000
   6.66500000E+03    6.92000000E-04 
   1.00000000E+03    5.32900000E-03 
   2.28000000E+02    2.70770000E-02 
   6.47100000E+01    1.01718000E-01 
   2.10600000E+01    2.74740000E-01 
   7.49500000E+00    4.48564000E-01 
   2.79700000E+00    2.85074000E-01 
   5.21500000E-01    1.52040000E-02 
S    8    1.000000
   6.66500000E+03   -1.46000000E-04 
   1.00000000E+03   -1.15400000E-03 
   2.28000000E+02   -5.72500000E-03 
   6.47100000E+01   -2.33120000E-02 
   2.10600000E+01   -6.39550000E-02 
   7.49500000E+00   -1.49981000E-01 
   2.79700000E+00   -1.27262000E-01 
   5.21500000E-01    5.44529000E-01 
S    1    1.000000
   1.59600000E-01    1.00000000E+00 
S    1    1.000000
   4.69000000E-02    1.00000000E+00 
P    3    1.000000
   9.43900000E+00    3.81090000E-02 
   2.00200000E+00    2.09480000E-01 
   5.45600000E-01    5.08557000E-01 
P    1    1.000000
   1.51700000E-01    1.00000000E+00 
P    1    1.000000
   4.04100000E-02    1.00000000E+00 
D    1    1.000000
   5.50000000E-01    1.00000000E+00 
D    1    1.000000
   1.51000000E-01    1.00000000E+00 

13    0
S    8    1.000000
   6.66500000E+03    6.92000000E-04 
   1.00000000E+03    5.32900000E-03 
   2.28000000E+02    2.70770000E-02 
   6.47100000E+01    1.01718000E-01 
   2.10600000E+01    2.74740000E-01 
   7.49500000E+00    4.48564000E-01 
   2.79700000E+00    2.85074000E-01 
   5.21500000E-01    1.52040000E-02 
S    8    1.000000
   6.66500000E+03   -1.46000000E-04 
   1.00000000E+03   -1.15400000E-03 
   2.28000000E+02   -5.72500000E-03 
   6.47100000E+01   -2.33120000E-02 
   2.10600000E+01   -6.39550000E-02 
   7.49500000E+00   -1.49981000E-01 
   2.79700000E+00   -1.27262000E-01 
   5.21500000E-01    5.44529000E-01 
S    1    1.000000
   1.59600000E-01    1.00000000E+00 
S    1    1.000000
   4.69000000E-02    1.00000000E+00 
P    3    1.000000
   9.43900000E+00    3.81090000E-02 
   2.00200000E+00    2.09480000E-01 
   5.45600000E-01    5.08557000E-01 
P    1    1.000000
   1.51700000E-01    1.00000000E+00 
P    1    1.000000
   4.04100000E-02    1.00000000E+00 
D    1    1.000000
   5.50000000E-01    1.00000000E+00 
D    1    1.000000
   1.51000000E-01    1.00000000E+00 

14    0
S    8    1.000000
   6.66500000E+03    6.92000000E-04 
   1.00000000E+03    5.32900000E-03 
   2.28000000E+02    2.70770000E-02 
   6.47100000E+01    1.01718000E-01 
   2.10600000E+01    2.74740000E-01 
   7.49500000E+00    4.48564000E-01 
   2.79700000E+00    2.85074000E-01 
   5.21500000E-01    1.52040000E-02 
S    8    1.000000
   6.66500000E+03   -1.46000000E-04 
   1.00000000E+03   -1.15400000E-03 
   2.28000000E+02   -5.72500000E-03 
   6.47100000E+01   -2.33120000E-02 
   2.10600000E+01   -6.39550000E-02 
   7.49500000E+00   -1.49981000E-01 
   2.79700000E+00   -1.27262000E-01 
   5.21500000E-01    5.44529000E-01 
S    1    1.000000
   1.59600000E-01    1.00000000E+00 
S    1    1.000000
   4.69000000E-02    1.00000000E+00 
P    3    1.000000
   9.43900000E+00    3.81090000E-02 
   2.00200000E+00    2.09480000E-01 
   5.45600000E-01    5.08557000E-01 
P    1    1.000000
   1.51700000E-01    1.00000000E+00 
P    1    1.000000
   4.04100000E-02    1.00000000E+00 
D    1    1.000000
   5.50000000E-01    1.00000000E+00 
D    1    1.000000
   1.51000000E-01    1.00000000E+00 

15    0
S    3    1.000000
   1.30100000E+01    1.96850000E-02 
   1.96200000E+00    1.37977000E-01 
   4.44600000E-01    4.78148000E-01 
S    1    1.000000
   1.22000000E-01    1.00000000E+00 
S    1    1.000000
   2.97400000E-02    1.00000000E+00 
P    1    1.000000
   7.27000000E-01    1.00000000E+00 
P    1    1.000000
   1.41000000E-01    1.00000000E+00 

16    0
S    3    1.000000
   1.30100000E+01    1.96850000E-02 
   1.96200000E+00    1.37977000E-01 
   4.44600000E-01    4.78148000E-01 
S    1    1.000000
   1.22000000E-01    1.00000000E+00 
S    1    1.000000
   2.97400000E-02    1.00000000E+00 
P    1    1.000000
   7.27000000E-01    1.00000000E+00 
P    1    1.000000
   1.41000000E-01    1.00000000E+00 

17    0
S    3    1.000000
   1.30100000E+01    1.96850000E-02 
   1.96200000E+00    1.37977000E-01 
   4.44600000E-01    4.78148000E-01 
S    1    1.000000
   1.22000000E-01    1.00000000E+00 
S    1    1.000000
   2.97400000E-02    1.00000000E+00 
P    1    1.000000
   7.27000000E-01    1.00000000E+00 
P    1    1.000000
   1.41000000E-01    1.00000000E+00 

18    0
S    3    1.000000
   1.30100000E+01    1.96850000E-02 
   1.96200000E+00    1.37977000E-01 
   4.44600000E-01    4.78148000E-01 
S    1    1.000000
   1.22000000E-01    1.00000000E+00 
S    1    1.000000
   2.97400000E-02    1.00000000E+00 
P    1    1.000000
   7.27000000E-01    1.00000000E+00 
P    1    1.000000
   1.41000000E-01    1.00000000E+00 

19    0
S    3    1.000000
   1.30100000E+01    1.96850000E-02 
   1.96200000E+00    1.37977000E-01 
   4.44600000E-01    4.78148000E-01 
S    1    1.000000
   1.22000000E-01    1.00000000E+00 
S    1    1.000000
   2.97400000E-02    1.00000000E+00 
P    1    1.000000
   7.27000000E-01    1.00000000E+00 
P    1    1.000000
   1.41000000E-01    1.00000000E+00 

20    0
S    3    1.000000
   1.30100000E+01    1.96850000E-02 
   1.96200000E+00    1.37977000E-01 
   4.44600000E-01    4.78148000E-01 
S    1    1.000000
   1.22000000E-01    1.00000000E+00 
S    1    1.000000
   2.97400000E-02    1.00000000E+00 
P    1    1.000000
   7.27000000E-01    1.00000000E+00 
P    1    1.000000
   1.41000000E-01    1.00000000E+00 

21    0
S    3    1.000000
   1.30100000E+01    1.96850000E-02 
   1.96200000E+00    1.37977000E-01 
   4.44600000E-01    4.78148000E-01 
S    1    1.000000
   1.22000000E-01    1.00000000E+00 
S    1    1.000000
   2.97400000E-02    1.00000000E+00 
P    1    1.000000
   7.27000000E-01    1.00000000E+00 
P    1    1.000000
   1.41000000E-01    1.00000000E+00 

22    0
S    3    1.000000
   1.30100000E+01    1.96850000E-02 
   1.96200000E+00    1.37977000E-01 
   4.44600000E-01    4.78148000E-01 
S    1    1.000000
   1.22000000E-01    1.00000000E+00 
S    1    1.000000
   2.97400000E-02    1.00000000E+00 
P    1    1.000000
   7.27000000E-01    1.00000000E+00 
P    1    1.000000
   1.41000000E-01    1.00000000E+00 

23    0
S    3    1.000000
   1.30100000E+01    1.96850000E-02 
   1.96200000E+00    1.37977000E-01 
   4.44600000E-01    4.78148000E-01 
S    1    1.000000
   1.22000000E-01    1.00000000E+00 
S    1    1.000000
   2.97400000E-02    1.00000000E+00 
P    1    1.000000
   7.27000000E-01    1.00000000E+00 
P    1    1.000000
   1.41000000E-01    1.00000000E+00 

24    0
S    8    1.000000
   1.17200000E+04    7.10000000E-04 
   1.75900000E+03    5.47000000E-03 
   4.00800000E+02    2.78370000E-02 
   1.13700000E+02    1.04800000E-01 
   3.70300000E+01    2.83062000E-01 
   1.32700000E+01    4.48719000E-01 
   5.02500000E+00    2.70952000E-01 
   1.01300000E+00    1.54580000E-02 
S    8    1.000000
   1.17200000E+04   -1.60000000E-04 
   1.75900000E+03   -1.26300000E-03 
   4.00800000E+02   -6.26700000E-03 
   1.13700000E+02   -2.57160000E-02 
   3.70300000E+01   -7.09240000E-02 
   1.32700000E+01   -1.65411000E-01 
   5.02500000E+00   -1.16955000E-01 
   1.01300000E+00    5.57368000E-01 
S    1    1.000000
   3.02300000E-01    1.00000000E+00 
S    1    1.000000
   7.89600000E-02    1.00000000E+00 
P    3    1.000000
   1.77000000E+01    4.30180000E-02 
   3.85400000E+00    2.28913000E-01 
   1.04600000E+00    5.08728000E-01 
P    1    1.000000
   2.75300000E-01    1.00000000E+00 
P    1    1.000000
   6.85600000E-02    1.00000000E+00 
D    1    1.000000
   1.18500000E+00    1.00000000E+00 
D    1    1.000000
   3.32000000E-01    1.00000000E+00 

25    0
S    15    1.000000
   6.34294000E+05    5.25596000E-05 
   8.13143400E+04    4.98068000E-04 
   1.67647900E+04    2.91602000E-03 
   4.42973000E+03    1.30856000E-02 
   1.37198800E+03    4.81108000E-02 
   4.75488100E+02    1.42721000E-01 
   1.79307600E+02    3.14824000E-01 
   7.24040900E+01    4.06967000E-01 
   3.06589900E+01    2.07434000E-01 
   9.83698700E+00    1.66181000E-02 
   3.99945900E+00   -2.56523000E-03 
   1.02701000E+00    8.39702000E-04 
   4.26654600E-01   -4.47647000E-04 
   6.36336500E-02    1.20064000E-04 
   2.62631700E-02   -6.04079000E-05 
S    15    1.000000
   6.34294000E+05   -1.52182000E-05 
   8.13143400E+04   -1.45233000E-04 
   1.67647900E+04   -8.43929000E-04 
   4.42973000E+03   -3.86276000E-03 
   1.37198800E+03   -1.42692000E-02 
   4.75488100E+02   -4.57714000E-02 
   1.79307600E+02   -1.12259000E-01 
   7.24040900E+01   -2.09337000E-01 
   3.06589900E+01   -1.18169000E-01 
   9.83698700E+00    4.98551000E-01 
   3.99945900E+00    6.14790000E-01 
   1.02701000E+00    5.89238000E-02 
   4.26654600E-01   -1.34539000E-02 
   6.36336500E-02    3.29146000E-03 
   2.62631700E-02   -1.62419000E-03 
S    15    1.000000
   6.34294000E+05    5.25601000E-06 
   8.13143400E+04    4.99945000E-05 
   1.67647900E+04    2.91984000E-04 
   4.42973000E+03    1.32884000E-03 
   1.37198800E+03    4.96095000E-03 
   4.75488100E+02    1.58367000E-02 
   1.79307600E+02    4.00138000E-02 
   7.24040900E+01    7.55025000E-02 
   3.06589900E+01    4.88318000E-02 
   9.83698700E+00   -2.53013000E-01 
   3.99945900E+00   -4.80449000E-01 
   1.02701000E+00    5.65877000E-01 
   4.26654600E-01    6.58327000E-01 
   6.36336500E-02    2.59175000E-02 
   2.62631700E-02   -9.51307000E-03 
S    15    1.000000
   6.34294000E+05   -1.25738000E-06 
   8.13143400E+04   -1.19254000E-05 
   1.67647900E+04   -6.99428000E-05 
   4.42973000E+03   -3.16569000E-04 
   1.37198800E+03   -1.19073000E-03 
   4.75488100E+02   -3.76860000E-03 
   1.79307600E+02   -9.66122000E-03 
   7.24040900E+01   -1.79561000E-02 
   3.06589900E+01   -1.23463000E-02 
   9.83698700E+00    6.48503000E-02 
   3.99945900E+00    1.24213000E-01 
   1.02701000E+00   -1.73178000E-01 
   4.26654600E-01   -3.79988000E-01 
   6.36336500E-02    6.57570000E-01 
   2.62631700E-02    4.93284000E-01 
S    1    1.000000
   2.62631700E-02    1.00000000E+00 
S    1    1.000000
   1.08400000E-02    1.00000000E+00 
P    11    1.000000
   1.23652800E+03    1.61050000E-03 
   2.77429200E+02    1.43720000E-02 
   8.65134700E+01    7.15876000E-02 
   3.16262200E+01    2.25429000E-01 
   1.25001500E+01    4.25126000E-01 
   5.13409400E+00    3.81133000E-01 
   2.00896800E+00    8.27503000E-02 
   8.38153900E-01   -3.63253000E-03 
   3.37704100E-01    1.84741000E-03 
   8.07092900E-02   -5.24557000E-04 
   2.90333400E-02    2.02329000E-04 
P    11    1.000000
   1.23652800E+03   -5.26787000E-04 
   2.77429200E+02   -4.70480000E-03 
   8.65134700E+01   -2.40594000E-02 
   3.16262200E+01   -7.80806000E-02 
   1.25001500E+01   -1.57752000E-01 
   5.13409400E+00   -1.34782000E-01 
   2.00896800E+00    2.24136000E-01 
   8.38153900E-01    5.57516000E-01 
   3.37704100E-01    3.56789000E-01 
   8.07092900E-02    2.69438000E-02 
   2.90333400E-02   -4.96010000E-03 
P    11    1.000000
   1.23652800E+03    1.10310000E-04 
   2.77429200E+02    9.78122000E-04 
   8.65134700E+01    5.05273000E-03 
   3.16262200E+01    1.62816000E-02 
   1.25001500E+01    3.36093000E-02 
   5.13409400E+00    2.72352000E-02 
   2.00896800E+00   -5.25284000E-02 
   8.38153900E-01   -1.46018000E-01 
   3.37704100E-01   -1.07776000E-01 
   8.07092900E-02    5.04039000E-01 
   2.90333400E-02    6.07438000E-01 
P    1    1.000000
   2.90333400E-02    1.00000000E+00 
P    1    1.000000
   1.04400000E-02    1.00000000E+00 
D    5    1.000000
   9.70927900E+00    3.52030000E-02 
   2.42484600E+00    1.55891000E-01 
   7.01808100E-01    3.18767000E-01 
   1.87739100E-01    4.62295000E-01 
   4.81882700E-02    4.61675000E-01 
D    1    1.000000
   4.81882700E-02    1.00000000E+00 
D    1    1.000000
   1.92800000E-02    1.00000000E+00 

[MO]
Sym=X
Ene= -0.355174
Spin=Alpha
Occup=1
     1   -6.991703160405e-11
     2   -6.670710027971e-11
     3    4.455913949845e-08
     4   -4.580862352884e-08
     5    3.223908555683e-10
     6   -1.026518425750e-09
     7   -3.396159254555e-02
     8   -1.905212467919e-07
     9    7.812777884289e-08
    10   -3.583309455083e-02
    11    8.737269186902e-08
    12   -3.821589961970e-08
    13   -8.642757306208e-03
    14   -2.376517419734e-10
    15   -1.235070345566e-02
    16    5.562465833250e-03
    17    2.890911648013e-10
    18    2.486253324851e-10
    19    2.141320994861e-09
    20    6.108014293443e-04
    21   -8.978645780429e-04
    22    4.204403418766e-08
    23    3.850809676915e-08
    24   -3.974697382935e-10
    25   -4.488004591964e-10
    26    3.800574964674e-08
    27    7.107215783783e-08
    28   -2.719933559715e-11
    29    3.184292833341e-10
    30    1.300734510651e-01
    31   -1.695884783820e-07
    32   -1.655487832417e-07
    33    9.371956257778e-02
    34    1.099238286896e-07
    35    4.327198112270e-08
    36    1.955360109892e-02
    37   -3.127176290049e-11
    38   -4.357929316358e-03
    39   -8.275887864380e-03
    40   -4.489550676914e-10
    41    4.314277430904e-10
    42   -1.227189860240e-09
    43    1.132127006331e-02
    44    6.525028075627e-05
    45   -8.682318908864e-08
    46    2.304031127534e-08
    47    2.196933554478e-10
    48    9.078455008144e-11
    49   -2.808492474099e-08
    50   -4.704039124378e-10
    51    2.552496329724e-10
    52    2.228169828897e-10
    53   -1.425399544186e-01
    54   -2.983213619933e-09
    55    1.977556371652e-07
    56   -1.099247265494e-01
    57    1.283314857479e-08
    58   -9.218728290583e-08
    59   -2.281817568026e-02
    60   -2.427902999050e-10
    61    2.198702572003e-03
    62    1.004940395217e-03
    63    1.626810747038e-10
    64   -6.851170413429e-10
    65    9.744968376455e-10
    66   -1.733961330121e-03
    67   -1.151119601507e-03
    68    6.630077777035e-09
    69   -6.145666812070e-08
    70   -1.086008394814e-11
    71    1.883971884811e-10
    72   -1.411956211999e-08
    73    3.430622496206e-08
    74   -3.728373578961e-11
    75    2.334268624128e-10
    76   -5.073537971783e-02
    77    1.681049578904e-07
    78    1.241050244107e-07
    79   -4.727041425909e-02
    80   -8.932457359675e-08
    81   -5.109339629882e-08
    82   -1.431280548262e-02
    83    1.413682936901e-10
    84   -1.057643595497e-02
    85   -7.871298408433e-03
    86   -3.080311667704e-10
    87    1.583862811510e-10
    88   -2.416146577872e-09
    89   -5.050899571215e-04
    90   -2.285026067038e-03
    91   -7.226172371968e-08
    92    2.344086835686e-08
    93    1.655254551237e-10
    94    2.420269227474e-10
    95   -2.632294707359e-08
    96    7.053047596719e-09
    97   -4.137940429044e-10
    98    7.205945076247e-10
    99    1.217261589468e-01
   100    2.161988911904e-07
   101   -1.090610718936e-07
   102    1.006052396529e-01
   103   -9.937136696468e-08
   104    3.679292382013e-08
   105    2.520919329727e-02
   106    3.106356830577e-11
   107   -7.459515824138e-03
   108    7.213634421062e-03
   109    2.711362716009e-10
   110    4.898854573852e-10
   111    9.682270504599e-10
   112    2.450334885402e-03
   113    6.825917974756e-03
   114    4.636085662185e-08
   115    5.565502039921e-08
   116   -5.639300290496e-12
   117   -2.242707767182e-10
   118   -2.193363296101e-08
   119   -1.147897563959e-07
   120    1.777055790241e-10
   121   -6.074472914629e-11
   122    1.437451670765e-01
   123    1.055568447604e-08
   124   -2.655992980179e-07
   125    1.183087412482e-01
   126   -3.400388712241e-08
   127    9.078607548382e-08
   128    2.099538389356e-02
   129    3.527169436825e-10
   130    1.967116665058e-02
   131    2.259347422964e-03
   132    1.098552920430e-11
   133   -5.551036896337e-10
   134   -1.759106504557e-09
   135   -5.716510000044e-03
   136    7.728332311575e-03
   137    1.732316735555e-10
   138   -8.491935686087e-08
   139    1.333524780406e-10
   140    3.444225729834e-10
   141    3.477079308542e-09
   142    1.388664118804e-07
   143   -2.546618938214e-10
   144   -2.488210258637e-11
   145   -2.583371671110e-01
   146    9.814213191015e-09
   147    3.009946004293e-09
   148   -1.991111174244e-01
   149    5.345594377066e-08
   150    4.614109849726e-08