[Molden Format]
[Atoms] (Angs)
  C      1    6      5.38708610      1.19101114     -0.00000000
  C      2    6      3.99189070      1.06071126     -0.00000000
  C      3    6      6.21309044      0.04921471      0.00000000
  C      4    6      5.63456771     -1.23001120      0.00000000
  C      5    6      4.23545543     -1.36536687      0.00000000
  C      6    6      3.41393550     -0.22601998      0.00000000
  N      7    7      1.99796605     -0.48702359      0.00000000
  N      8    7      1.29679689      0.55718855     -0.00000000
  C      9    6     -0.11397051      0.31959694     -0.00000000
  C     10    6     -0.92868597      1.46447214     -0.00000000
  C     11    6     -2.32567437      1.35269118      0.00000000
  C     12    6     -2.94457877      0.08020355     -0.00000000
  C     13    6     -2.10990697     -1.07107689      0.00000000
  C     14    6     -0.71875824     -0.95680710     -0.00000000
  H     15    1      5.83777935      2.19011218     -0.00000000
  H     16    1      3.33801096      1.93660822     -0.00000000
  H     17    1      7.30322960      0.16059225     -0.00000000
  H     18    1      6.26985689     -2.12272736      0.00000000
  H     19    1      3.75657799     -2.35020309      0.00000000
  H     20    1     -0.44330594      2.44685805     -0.00000000
  H     21    1     -2.95781245      2.24776347      0.00000000
  H     22    1     -2.58563428     -2.05875591      0.00000000
  H     23    1     -0.08171270     -1.84587005     -0.00000000
  O     24    8     -4.27956295     -0.04243733     -0.00000000
 Ca     25   20     -6.38352663     -0.23838735     -0.00000000
[GTO]
1    0
S    8    1.000000
   6.66500000E+03    6.92000000E-04 
   1.00000000E+03    5.32900000E-03 
   2.28000000E+02    2.70770000E-02 
   6.47100000E+01    1.01718000E-01 
   2.10600000E+01    2.74740000E-01 
   7.49500000E+00    4.48564000E-01 
   2.79700000E+00    2.85074000E-01 
   5.21500000E-01    1.52040000E-02 
S    8    1.000000
   6.66500000E+03   -1.46000000E-04 
   1.00000000E+03   -1.15400000E-03 
   2.28000000E+02   -5.72500000E-03 
   6.47100000E+01   -2.33120000E-02 
   2.10600000E+01   -6.39550000E-02 
   7.49500000E+00   -1.49981000E-01 
   2.79700000E+00   -1.27262000E-01 
   5.21500000E-01    5.44529000E-01 
S    1    1.000000
   1.59600000E-01    1.00000000E+00 
S    1    1.000000
   4.69000000E-02    1.00000000E+00 
P    3    1.000000
   9.43900000E+00    3.81090000E-02 
   2.00200000E+00    2.09480000E-01 
   5.45600000E-01    5.08557000E-01 
P    1    1.000000
   1.51700000E-01    1.00000000E+00 
P    1    1.000000
   4.04100000E-02    1.00000000E+00 
D    1    1.000000
   5.50000000E-01    1.00000000E+00 
D    1    1.000000
   1.51000000E-01    1.00000000E+00 

2    0
S    8    1.000000
   6.66500000E+03    6.92000000E-04 
   1.00000000E+03    5.32900000E-03 
   2.28000000E+02    2.70770000E-02 
   6.47100000E+01    1.01718000E-01 
   2.10600000E+01    2.74740000E-01 
   7.49500000E+00    4.48564000E-01 
   2.79700000E+00    2.85074000E-01 
   5.21500000E-01    1.52040000E-02 
S    8    1.000000
   6.66500000E+03   -1.46000000E-04 
   1.00000000E+03   -1.15400000E-03 
   2.28000000E+02   -5.72500000E-03 
   6.47100000E+01   -2.33120000E-02 
   2.10600000E+01   -6.39550000E-02 
   7.49500000E+00   -1.49981000E-01 
   2.79700000E+00   -1.27262000E-01 
   5.21500000E-01    5.44529000E-01 
S    1    1.000000
   1.59600000E-01    1.00000000E+00 
S    1    1.000000
   4.69000000E-02    1.00000000E+00 
P    3    1.000000
   9.43900000E+00    3.81090000E-02 
   2.00200000E+00    2.09480000E-01 
   5.45600000E-01    5.08557000E-01 
P    1    1.000000
   1.51700000E-01    1.00000000E+00 
P    1    1.000000
   4.04100000E-02    1.00000000E+00 
D    1    1.000000
   5.50000000E-01    1.00000000E+00 
D    1    1.000000
   1.51000000E-01    1.00000000E+00 

3    0
S    8    1.000000
   6.66500000E+03    6.92000000E-04 
   1.00000000E+03    5.32900000E-03 
   2.28000000E+02    2.70770000E-02 
   6.47100000E+01    1.01718000E-01 
   2.10600000E+01    2.74740000E-01 
   7.49500000E+00    4.48564000E-01 
   2.79700000E+00    2.85074000E-01 
   5.21500000E-01    1.52040000E-02 
S    8    1.000000
   6.66500000E+03   -1.46000000E-04 
   1.00000000E+03   -1.15400000E-03 
   2.28000000E+02   -5.72500000E-03 
   6.47100000E+01   -2.33120000E-02 
   2.10600000E+01   -6.39550000E-02 
   7.49500000E+00   -1.49981000E-01 
   2.79700000E+00   -1.27262000E-01 
   5.21500000E-01    5.44529000E-01 
S    1    1.000000
   1.59600000E-01    1.00000000E+00 
S    1    1.000000
   4.69000000E-02    1.00000000E+00 
P    3    1.000000
   9.43900000E+00    3.81090000E-02 
   2.00200000E+00    2.09480000E-01 
   5.45600000E-01    5.08557000E-01 
P    1    1.000000
   1.51700000E-01    1.00000000E+00 
P    1    1.000000
   4.04100000E-02    1.00000000E+00 
D    1    1.000000
   5.50000000E-01    1.00000000E+00 
D    1    1.000000
   1.51000000E-01    1.00000000E+00 

4    0
S    8    1.000000
   6.66500000E+03    6.92000000E-04 
   1.00000000E+03    5.32900000E-03 
   2.28000000E+02    2.70770000E-02 
   6.47100000E+01    1.01718000E-01 
   2.10600000E+01    2.74740000E-01 
   7.49500000E+00    4.48564000E-01 
   2.79700000E+00    2.85074000E-01 
   5.21500000E-01    1.52040000E-02 
S    8    1.000000
   6.66500000E+03   -1.46000000E-04 
   1.00000000E+03   -1.15400000E-03 
   2.28000000E+02   -5.72500000E-03 
   6.47100000E+01   -2.33120000E-02 
   2.10600000E+01   -6.39550000E-02 
   7.49500000E+00   -1.49981000E-01 
   2.79700000E+00   -1.27262000E-01 
   5.21500000E-01    5.44529000E-01 
S    1    1.000000
   1.59600000E-01    1.00000000E+00 
S    1    1.000000
   4.69000000E-02    1.00000000E+00 
P    3    1.000000
   9.43900000E+00    3.81090000E-02 
   2.00200000E+00    2.09480000E-01 
   5.45600000E-01    5.08557000E-01 
P    1    1.000000
   1.51700000E-01    1.00000000E+00 
P    1    1.000000
   4.04100000E-02    1.00000000E+00 
D    1    1.000000
   5.50000000E-01    1.00000000E+00 
D    1    1.000000
   1.51000000E-01    1.00000000E+00 

5    0
S    8    1.000000
   6.66500000E+03    6.92000000E-04 
   1.00000000E+03    5.32900000E-03 
   2.28000000E+02    2.70770000E-02 
   6.47100000E+01    1.01718000E-01 
   2.10600000E+01    2.74740000E-01 
   7.49500000E+00    4.48564000E-01 
   2.79700000E+00    2.85074000E-01 
   5.21500000E-01    1.52040000E-02 
S    8    1.000000
   6.66500000E+03   -1.46000000E-04 
   1.00000000E+03   -1.15400000E-03 
   2.28000000E+02   -5.72500000E-03 
   6.47100000E+01   -2.33120000E-02 
   2.10600000E+01   -6.39550000E-02 
   7.49500000E+00   -1.49981000E-01 
   2.79700000E+00   -1.27262000E-01 
   5.21500000E-01    5.44529000E-01 
S    1    1.000000
   1.59600000E-01    1.00000000E+00 
S    1    1.000000
   4.69000000E-02    1.00000000E+00 
P    3    1.000000
   9.43900000E+00    3.81090000E-02 
   2.00200000E+00    2.09480000E-01 
   5.45600000E-01    5.08557000E-01 
P    1    1.000000
   1.51700000E-01    1.00000000E+00 
P    1    1.000000
   4.04100000E-02    1.00000000E+00 
D    1    1.000000
   5.50000000E-01    1.00000000E+00 
D    1    1.000000
   1.51000000E-01    1.00000000E+00 

6    0
S    8    1.000000
   6.66500000E+03    6.92000000E-04 
   1.00000000E+03    5.32900000E-03 
   2.28000000E+02    2.70770000E-02 
   6.47100000E+01    1.01718000E-01 
   2.10600000E+01    2.74740000E-01 
   7.49500000E+00    4.48564000E-01 
   2.79700000E+00    2.85074000E-01 
   5.21500000E-01    1.52040000E-02 
S    8    1.000000
   6.66500000E+03   -1.46000000E-04 
   1.00000000E+03   -1.15400000E-03 
   2.28000000E+02   -5.72500000E-03 
   6.47100000E+01   -2.33120000E-02 
   2.10600000E+01   -6.39550000E-02 
   7.49500000E+00   -1.49981000E-01 
   2.79700000E+00   -1.27262000E-01 
   5.21500000E-01    5.44529000E-01 
S    1    1.000000
   1.59600000E-01    1.00000000E+00 
S    1    1.000000
   4.69000000E-02    1.00000000E+00 
P    3    1.000000
   9.43900000E+00    3.81090000E-02 
   2.00200000E+00    2.09480000E-01 
   5.45600000E-01    5.08557000E-01 
P    1    1.000000
   1.51700000E-01    1.00000000E+00 
P    1    1.000000
   4.04100000E-02    1.00000000E+00 
D    1    1.000000
   5.50000000E-01    1.00000000E+00 
D    1    1.000000
   1.51000000E-01    1.00000000E+00 

7    0
S    8    1.000000
   9.04600000E+03    7.00000000E-04 
   1.35700000E+03    5.38900000E-03 
   3.09300000E+02    2.74060000E-02 
   8.77300000E+01    1.03207000E-01 
   2.85600000E+01    2.78723000E-01 
   1.02100000E+01    4.48540000E-01 
   3.83800000E+00    2.78238000E-01 
   7.46600000E-01    1.54400000E-02 
S    8    1.000000
   9.04600000E+03   -1.53000000E-04 
   1.35700000E+03   -1.20800000E-03 
   3.09300000E+02   -5.99200000E-03 
   8.77300000E+01   -2.45440000E-02 
   2.85600000E+01   -6.74590000E-02 
   1.02100000E+01   -1.58078000E-01 
   3.83800000E+00   -1.21831000E-01 
   7.46600000E-01    5.49003000E-01 
S    1    1.000000
   2.24800000E-01    1.00000000E+00 
S    1    1.000000
   6.12400000E-02    1.00000000E+00 
P    3    1.000000
   1.35500000E+01    3.99190000E-02 
   2.91700000E+00    2.17169000E-01 
   7.97300000E-01    5.10319000E-01 
P    1    1.000000
   2.18500000E-01    1.00000000E+00 
P    1    1.000000
   5.61100000E-02    1.00000000E+00 
D    1    1.000000
   8.17000000E-01    1.00000000E+00 
D    1    1.000000
   2.30000000E-01    1.00000000E+00 

8    0
S    8    1.000000
   9.04600000E+03    7.00000000E-04 
   1.35700000E+03    5.38900000E-03 
   3.09300000E+02    2.74060000E-02 
   8.77300000E+01    1.03207000E-01 
   2.85600000E+01    2.78723000E-01 
   1.02100000E+01    4.48540000E-01 
   3.83800000E+00    2.78238000E-01 
   7.46600000E-01    1.54400000E-02 
S    8    1.000000
   9.04600000E+03   -1.53000000E-04 
   1.35700000E+03   -1.20800000E-03 
   3.09300000E+02   -5.99200000E-03 
   8.77300000E+01   -2.45440000E-02 
   2.85600000E+01   -6.74590000E-02 
   1.02100000E+01   -1.58078000E-01 
   3.83800000E+00   -1.21831000E-01 
   7.46600000E-01    5.49003000E-01 
S    1    1.000000
   2.24800000E-01    1.00000000E+00 
S    1    1.000000
   6.12400000E-02    1.00000000E+00 
P    3    1.000000
   1.35500000E+01    3.99190000E-02 
   2.91700000E+00    2.17169000E-01 
   7.97300000E-01    5.10319000E-01 
P    1    1.000000
   2.18500000E-01    1.00000000E+00 
P    1    1.000000
   5.61100000E-02    1.00000000E+00 
D    1    1.000000
   8.17000000E-01    1.00000000E+00 
D    1    1.000000
   2.30000000E-01    1.00000000E+00 

9    0
S    8    1.000000
   6.66500000E+03    6.92000000E-04 
   1.00000000E+03    5.32900000E-03 
   2.28000000E+02    2.70770000E-02 
   6.47100000E+01    1.01718000E-01 
   2.10600000E+01    2.74740000E-01 
   7.49500000E+00    4.48564000E-01 
   2.79700000E+00    2.85074000E-01 
   5.21500000E-01    1.52040000E-02 
S    8    1.000000
   6.66500000E+03   -1.46000000E-04 
   1.00000000E+03   -1.15400000E-03 
   2.28000000E+02   -5.72500000E-03 
   6.47100000E+01   -2.33120000E-02 
   2.10600000E+01   -6.39550000E-02 
   7.49500000E+00   -1.49981000E-01 
   2.79700000E+00   -1.27262000E-01 
   5.21500000E-01    5.44529000E-01 
S    1    1.000000
   1.59600000E-01    1.00000000E+00 
S    1    1.000000
   4.69000000E-02    1.00000000E+00 
P    3    1.000000
   9.43900000E+00    3.81090000E-02 
   2.00200000E+00    2.09480000E-01 
   5.45600000E-01    5.08557000E-01 
P    1    1.000000
   1.51700000E-01    1.00000000E+00 
P    1    1.000000
   4.04100000E-02    1.00000000E+00 
D    1    1.000000
   5.50000000E-01    1.00000000E+00 
D    1    1.000000
   1.51000000E-01    1.00000000E+00 

10    0
S    8    1.000000
   6.66500000E+03    6.92000000E-04 
   1.00000000E+03    5.32900000E-03 
   2.28000000E+02    2.70770000E-02 
   6.47100000E+01    1.01718000E-01 
   2.10600000E+01    2.74740000E-01 
   7.49500000E+00    4.48564000E-01 
   2.79700000E+00    2.85074000E-01 
   5.21500000E-01    1.52040000E-02 
S    8    1.000000
   6.66500000E+03   -1.46000000E-04 
   1.00000000E+03   -1.15400000E-03 
   2.28000000E+02   -5.72500000E-03 
   6.47100000E+01   -2.33120000E-02 
   2.10600000E+01   -6.39550000E-02 
   7.49500000E+00   -1.49981000E-01 
   2.79700000E+00   -1.27262000E-01 
   5.21500000E-01    5.44529000E-01 
S    1    1.000000
   1.59600000E-01    1.00000000E+00 
S    1    1.000000
   4.69000000E-02    1.00000000E+00 
P    3    1.000000
   9.43900000E+00    3.81090000E-02 
   2.00200000E+00    2.09480000E-01 
   5.45600000E-01    5.08557000E-01 
P    1    1.000000
   1.51700000E-01    1.00000000E+00 
P    1    1.000000
   4.04100000E-02    1.00000000E+00 
D    1    1.000000
   5.50000000E-01    1.00000000E+00 
D    1    1.000000
   1.51000000E-01    1.00000000E+00 

11    0
S    8    1.000000
   6.66500000E+03    6.92000000E-04 
   1.00000000E+03    5.32900000E-03 
   2.28000000E+02    2.70770000E-02 
   6.47100000E+01    1.01718000E-01 
   2.10600000E+01    2.74740000E-01 
   7.49500000E+00    4.48564000E-01 
   2.79700000E+00    2.85074000E-01 
   5.21500000E-01    1.52040000E-02 
S    8    1.000000
   6.66500000E+03   -1.46000000E-04 
   1.00000000E+03   -1.15400000E-03 
   2.28000000E+02   -5.72500000E-03 
   6.47100000E+01   -2.33120000E-02 
   2.10600000E+01   -6.39550000E-02 
   7.49500000E+00   -1.49981000E-01 
   2.79700000E+00   -1.27262000E-01 
   5.21500000E-01    5.44529000E-01 
S    1    1.000000
   1.59600000E-01    1.00000000E+00 
S    1    1.000000
   4.69000000E-02    1.00000000E+00 
P    3    1.000000
   9.43900000E+00    3.81090000E-02 
   2.00200000E+00    2.09480000E-01 
   5.45600000E-01    5.08557000E-01 
P    1    1.000000
   1.51700000E-01    1.00000000E+00 
P    1    1.000000
   4.04100000E-02    1.00000000E+00 
D    1    1.000000
   5.50000000E-01    1.00000000E+00 
D    1    1.000000
   1.51000000E-01    1.00000000E+00 

12    0
S    8    1.000000
   6.66500000E+03    6.92000000E-04 
   1.00000000E+03    5.32900000E-03 
   2.28000000E+02    2.70770000E-02 
   6.47100000E+01    1.01718000E-01 
   2.10600000E+01    2.74740000E-01 
   7.49500000E+00    4.48564000E-01 
   2.79700000E+00    2.85074000E-01 
   5.21500000E-01    1.52040000E-02 
S    8    1.000000
   6.66500000E+03   -1.46000000E-04 
   1.00000000E+03   -1.15400000E-03 
   2.28000000E+02   -5.72500000E-03 
   6.47100000E+01   -2.33120000E-02 
   2.10600000E+01   -6.39550000E-02 
   7.49500000E+00   -1.49981000E-01 
   2.79700000E+00   -1.27262000E-01 
   5.21500000E-01    5.44529000E-01 
S    1    1.000000
   1.59600000E-01    1.00000000E+00 
S    1    1.000000
   4.69000000E-02    1.00000000E+00 
P    3    1.000000
   9.43900000E+00    3.81090000E-02 
   2.00200000E+00    2.09480000E-01 
   5.45600000E-01    5.08557000E-01 
P    1    1.000000
   1.51700000E-01    1.00000000E+00 
P    1    1.000000
   4.04100000E-02    1.00000000E+00 
D    1    1.000000
   5.50000000E-01    1.00000000E+00 
D    1    1.000000
   1.51000000E-01    1.00000000E+00 

13    0
S    8    1.000000
   6.66500000E+03    6.92000000E-04 
   1.00000000E+03    5.32900000E-03 
   2.28000000E+02    2.70770000E-02 
   6.47100000E+01    1.01718000E-01 
   2.10600000E+01    2.74740000E-01 
   7.49500000E+00    4.48564000E-01 
   2.79700000E+00    2.85074000E-01 
   5.21500000E-01    1.52040000E-02 
S    8    1.000000
   6.66500000E+03   -1.46000000E-04 
   1.00000000E+03   -1.15400000E-03 
   2.28000000E+02   -5.72500000E-03 
   6.47100000E+01   -2.33120000E-02 
   2.10600000E+01   -6.39550000E-02 
   7.49500000E+00   -1.49981000E-01 
   2.79700000E+00   -1.27262000E-01 
   5.21500000E-01    5.44529000E-01 
S    1    1.000000
   1.59600000E-01    1.00000000E+00 
S    1    1.000000
   4.69000000E-02    1.00000000E+00 
P    3    1.000000
   9.43900000E+00    3.81090000E-02 
   2.00200000E+00    2.09480000E-01 
   5.45600000E-01    5.08557000E-01 
P    1    1.000000
   1.51700000E-01    1.00000000E+00 
P    1    1.000000
   4.04100000E-02    1.00000000E+00 
D    1    1.000000
   5.50000000E-01    1.00000000E+00 
D    1    1.000000
   1.51000000E-01    1.00000000E+00 

14    0
S    8    1.000000
   6.66500000E+03    6.92000000E-04 
   1.00000000E+03    5.32900000E-03 
   2.28000000E+02    2.70770000E-02 
   6.47100000E+01    1.01718000E-01 
   2.10600000E+01    2.74740000E-01 
   7.49500000E+00    4.48564000E-01 
   2.79700000E+00    2.85074000E-01 
   5.21500000E-01    1.52040000E-02 
S    8    1.000000
   6.66500000E+03   -1.46000000E-04 
   1.00000000E+03   -1.15400000E-03 
   2.28000000E+02   -5.72500000E-03 
   6.47100000E+01   -2.33120000E-02 
   2.10600000E+01   -6.39550000E-02 
   7.49500000E+00   -1.49981000E-01 
   2.79700000E+00   -1.27262000E-01 
   5.21500000E-01    5.44529000E-01 
S    1    1.000000
   1.59600000E-01    1.00000000E+00 
S    1    1.000000
   4.69000000E-02    1.00000000E+00 
P    3    1.000000
   9.43900000E+00    3.81090000E-02 
   2.00200000E+00    2.09480000E-01 
   5.45600000E-01    5.08557000E-01 
P    1    1.000000
   1.51700000E-01    1.00000000E+00 
P    1    1.000000
   4.04100000E-02    1.00000000E+00 
D    1    1.000000
   5.50000000E-01    1.00000000E+00 
D    1    1.000000
   1.51000000E-01    1.00000000E+00 

15    0
S    3    1.000000
   1.30100000E+01    1.96850000E-02 
   1.96200000E+00    1.37977000E-01 
   4.44600000E-01    4.78148000E-01 
S    1    1.000000
   1.22000000E-01    1.00000000E+00 
S    1    1.000000
   2.97400000E-02    1.00000000E+00 
P    1    1.000000
   7.27000000E-01    1.00000000E+00 
P    1    1.000000
   1.41000000E-01    1.00000000E+00 

16    0
S    3    1.000000
   1.30100000E+01    1.96850000E-02 
   1.96200000E+00    1.37977000E-01 
   4.44600000E-01    4.78148000E-01 
S    1    1.000000
   1.22000000E-01    1.00000000E+00 
S    1    1.000000
   2.97400000E-02    1.00000000E+00 
P    1    1.000000
   7.27000000E-01    1.00000000E+00 
P    1    1.000000
   1.41000000E-01    1.00000000E+00 

17    0
S    3    1.000000
   1.30100000E+01    1.96850000E-02 
   1.96200000E+00    1.37977000E-01 
   4.44600000E-01    4.78148000E-01 
S    1    1.000000
   1.22000000E-01    1.00000000E+00 
S    1    1.000000
   2.97400000E-02    1.00000000E+00 
P    1    1.000000
   7.27000000E-01    1.00000000E+00 
P    1    1.000000
   1.41000000E-01    1.00000000E+00 

18    0
S    3    1.000000
   1.30100000E+01    1.96850000E-02 
   1.96200000E+00    1.37977000E-01 
   4.44600000E-01    4.78148000E-01 
S    1    1.000000
   1.22000000E-01    1.00000000E+00 
S    1    1.000000
   2.97400000E-02    1.00000000E+00 
P    1    1.000000
   7.27000000E-01    1.00000000E+00 
P    1    1.000000
   1.41000000E-01    1.00000000E+00 

19    0
S    3    1.000000
   1.30100000E+01    1.96850000E-02 
   1.96200000E+00    1.37977000E-01 
   4.44600000E-01    4.78148000E-01 
S    1    1.000000
   1.22000000E-01    1.00000000E+00 
S    1    1.000000
   2.97400000E-02    1.00000000E+00 
P    1    1.000000
   7.27000000E-01    1.00000000E+00 
P    1    1.000000
   1.41000000E-01    1.00000000E+00 

20    0
S    3    1.000000
   1.30100000E+01    1.96850000E-02 
   1.96200000E+00    1.37977000E-01 
   4.44600000E-01    4.78148000E-01 
S    1    1.000000
   1.22000000E-01    1.00000000E+00 
S    1    1.000000
   2.97400000E-02    1.00000000E+00 
P    1    1.000000
   7.27000000E-01    1.00000000E+00 
P    1    1.000000
   1.41000000E-01    1.00000000E+00 

21    0
S    3    1.000000
   1.30100000E+01    1.96850000E-02 
   1.96200000E+00    1.37977000E-01 
   4.44600000E-01    4.78148000E-01 
S    1    1.000000
   1.22000000E-01    1.00000000E+00 
S    1    1.000000
   2.97400000E-02    1.00000000E+00 
P    1    1.000000
   7.27000000E-01    1.00000000E+00 
P    1    1.000000
   1.41000000E-01    1.00000000E+00 

22    0
S    3    1.000000
   1.30100000E+01    1.96850000E-02 
   1.96200000E+00    1.37977000E-01 
   4.44600000E-01    4.78148000E-01 
S    1    1.000000
   1.22000000E-01    1.00000000E+00 
S    1    1.000000
   2.97400000E-02    1.00000000E+00 
P    1    1.000000
   7.27000000E-01    1.00000000E+00 
P    1    1.000000
   1.41000000E-01    1.00000000E+00 

23    0
S    3    1.000000
   1.30100000E+01    1.96850000E-02 
   1.96200000E+00    1.37977000E-01 
   4.44600000E-01    4.78148000E-01 
S    1    1.000000
   1.22000000E-01    1.00000000E+00 
S    1    1.000000
   2.97400000E-02    1.00000000E+00 
P    1    1.000000
   7.27000000E-01    1.00000000E+00 
P    1    1.000000
   1.41000000E-01    1.00000000E+00 

24    0
S    8    1.000000
   1.17200000E+04    7.10000000E-04 
   1.75900000E+03    5.47000000E-03 
   4.00800000E+02    2.78370000E-02 
   1.13700000E+02    1.04800000E-01 
   3.70300000E+01    2.83062000E-01 
   1.32700000E+01    4.48719000E-01 
   5.02500000E+00    2.70952000E-01 
   1.01300000E+00    1.54580000E-02 
S    8    1.000000
   1.17200000E+04   -1.60000000E-04 
   1.75900000E+03   -1.26300000E-03 
   4.00800000E+02   -6.26700000E-03 
   1.13700000E+02   -2.57160000E-02 
   3.70300000E+01   -7.09240000E-02 
   1.32700000E+01   -1.65411000E-01 
   5.02500000E+00   -1.16955000E-01 
   1.01300000E+00    5.57368000E-01 
S    1    1.000000
   3.02300000E-01    1.00000000E+00 
S    1    1.000000
   7.89600000E-02    1.00000000E+00 
P    3    1.000000
   1.77000000E+01    4.30180000E-02 
   3.85400000E+00    2.28913000E-01 
   1.04600000E+00    5.08728000E-01 
P    1    1.000000
   2.75300000E-01    1.00000000E+00 
P    1    1.000000
   6.85600000E-02    1.00000000E+00 
D    1    1.000000
   1.18500000E+00    1.00000000E+00 
D    1    1.000000
   3.32000000E-01    1.00000000E+00 

25    0
S    15    1.000000
   6.34294000E+05    5.25596000E-05 
   8.13143400E+04    4.98068000E-04 
   1.67647900E+04    2.91602000E-03 
   4.42973000E+03    1.30856000E-02 
   1.37198800E+03    4.81108000E-02 
   4.75488100E+02    1.42721000E-01 
   1.79307600E+02    3.14824000E-01 
   7.24040900E+01    4.06967000E-01 
   3.06589900E+01    2.07434000E-01 
   9.83698700E+00    1.66181000E-02 
   3.99945900E+00   -2.56523000E-03 
   1.02701000E+00    8.39702000E-04 
   4.26654600E-01   -4.47647000E-04 
   6.36336500E-02    1.20064000E-04 
   2.62631700E-02   -6.04079000E-05 
S    15    1.000000
   6.34294000E+05   -1.52182000E-05 
   8.13143400E+04   -1.45233000E-04 
   1.67647900E+04   -8.43929000E-04 
   4.42973000E+03   -3.86276000E-03 
   1.37198800E+03   -1.42692000E-02 
   4.75488100E+02   -4.57714000E-02 
   1.79307600E+02   -1.12259000E-01 
   7.24040900E+01   -2.09337000E-01 
   3.06589900E+01   -1.18169000E-01 
   9.83698700E+00    4.98551000E-01 
   3.99945900E+00    6.14790000E-01 
   1.02701000E+00    5.89238000E-02 
   4.26654600E-01   -1.34539000E-02 
   6.36336500E-02    3.29146000E-03 
   2.62631700E-02   -1.62419000E-03 
S    15    1.000000
   6.34294000E+05    5.25601000E-06 
   8.13143400E+04    4.99945000E-05 
   1.67647900E+04    2.91984000E-04 
   4.42973000E+03    1.32884000E-03 
   1.37198800E+03    4.96095000E-03 
   4.75488100E+02    1.58367000E-02 
   1.79307600E+02    4.00138000E-02 
   7.24040900E+01    7.55025000E-02 
   3.06589900E+01    4.88318000E-02 
   9.83698700E+00   -2.53013000E-01 
   3.99945900E+00   -4.80449000E-01 
   1.02701000E+00    5.65877000E-01 
   4.26654600E-01    6.58327000E-01 
   6.36336500E-02    2.59175000E-02 
   2.62631700E-02   -9.51307000E-03 
S    15    1.000000
   6.34294000E+05   -1.25738000E-06 
   8.13143400E+04   -1.19254000E-05 
   1.67647900E+04   -6.99428000E-05 
   4.42973000E+03   -3.16569000E-04 
   1.37198800E+03   -1.19073000E-03 
   4.75488100E+02   -3.76860000E-03 
   1.79307600E+02   -9.66122000E-03 
   7.24040900E+01   -1.79561000E-02 
   3.06589900E+01   -1.23463000E-02 
   9.83698700E+00    6.48503000E-02 
   3.99945900E+00    1.24213000E-01 
   1.02701000E+00   -1.73178000E-01 
   4.26654600E-01   -3.79988000E-01 
   6.36336500E-02    6.57570000E-01 
   2.62631700E-02    4.93284000E-01 
S    1    1.000000
   2.62631700E-02    1.00000000E+00 
S    1    1.000000
   1.08400000E-02    1.00000000E+00 
P    11    1.000000
   1.23652800E+03    1.61050000E-03 
   2.77429200E+02    1.43720000E-02 
   8.65134700E+01    7.15876000E-02 
   3.16262200E+01    2.25429000E-01 
   1.25001500E+01    4.25126000E-01 
   5.13409400E+00    3.81133000E-01 
   2.00896800E+00    8.27503000E-02 
   8.38153900E-01   -3.63253000E-03 
   3.37704100E-01    1.84741000E-03 
   8.07092900E-02   -5.24557000E-04 
   2.90333400E-02    2.02329000E-04 
P    11    1.000000
   1.23652800E+03   -5.26787000E-04 
   2.77429200E+02   -4.70480000E-03 
   8.65134700E+01   -2.40594000E-02 
   3.16262200E+01   -7.80806000E-02 
   1.25001500E+01   -1.57752000E-01 
   5.13409400E+00   -1.34782000E-01 
   2.00896800E+00    2.24136000E-01 
   8.38153900E-01    5.57516000E-01 
   3.37704100E-01    3.56789000E-01 
   8.07092900E-02    2.69438000E-02 
   2.90333400E-02   -4.96010000E-03 
P    11    1.000000
   1.23652800E+03    1.10310000E-04 
   2.77429200E+02    9.78122000E-04 
   8.65134700E+01    5.05273000E-03 
   3.16262200E+01    1.62816000E-02 
   1.25001500E+01    3.36093000E-02 
   5.13409400E+00    2.72352000E-02 
   2.00896800E+00   -5.25284000E-02 
   8.38153900E-01   -1.46018000E-01 
   3.37704100E-01   -1.07776000E-01 
   8.07092900E-02    5.04039000E-01 
   2.90333400E-02    6.07438000E-01 
P    1    1.000000
   2.90333400E-02    1.00000000E+00 
P    1    1.000000
   1.04400000E-02    1.00000000E+00 
D    5    1.000000
   9.70927900E+00    3.52030000E-02 
   2.42484600E+00    1.55891000E-01 
   7.01808100E-01    3.18767000E-01 
   1.87739100E-01    4.62295000E-01 
   4.81882700E-02    4.61675000E-01 
D    1    1.000000
   4.81882700E-02    1.00000000E+00 
D    1    1.000000
   1.92800000E-02    1.00000000E+00 

[MO]
Sym=X
Ene= -0.803470
Spin=Beta 
Occup=1
     1    1.772472946648e-11
     2   -9.966258218225e-12
     3   -2.573740470590e-08
     4    5.064837875118e-08
     5   -9.302639067969e-11
     6    4.460537135711e-10
     7    1.431429313151e-02
     8    1.231006629977e-07
     9   -5.058305171222e-08
    10    1.594399932997e-02
    11   -8.555937258305e-08
    12    3.968556333190e-08
    13    1.386902292831e-03
    14    9.992330201884e-11
    15    5.502542516965e-03
    16   -2.388123274948e-03
    17   -1.711389377578e-10
    18   -1.527785391342e-10
    19   -1.445698569603e-09
    20    9.738588543392e-04
    21   -9.653309079334e-05
    22   -2.702610361491e-08
    23   -2.512538370475e-08
    24    1.980829474649e-10
    25    3.163800160341e-10
    26   -1.585921710313e-08
    27   -7.886009879244e-08
    28   -1.330999800816e-10
    29   -1.078317253989e-10
    30   -5.671815686034e-02
    31    1.122610772929e-07
    32    9.293913695512e-08
    33   -4.341274001291e-02
    34   -1.050865040102e-07
    35   -4.494228604745e-08
    36   -8.560003213020e-03
    37    7.216721532830e-11
    38    1.246491284358e-03
    39    2.675692165292e-03
    40    2.151975199587e-10
    41   -1.966078917464e-10
    42    4.110852740051e-10
    43   -5.599899095782e-03
    44    1.392747730637e-03
    45    5.010368154203e-08
    46   -1.287693095655e-08
    47    1.262543814439e-12
    48    6.556499467096e-11
    49    6.887953060447e-09
    50   -1.127497620512e-08
    51   -1.236360762466e-10
    52   -9.171751009380e-11
    53    6.203551225317e-02
    54    7.838213697538e-09
    55   -1.217710302216e-07
    56    4.920569948480e-02
    57   -2.092190902636e-09
    58    8.591199255722e-08
    59    1.455330770718e-02
    60    3.766532160012e-11
    61   -6.052068994669e-04
    62    7.949151502913e-05
    63   -1.458802595372e-10
    64    3.123055455478e-10
    65    2.159924759038e-10
    66    1.709074341001e-03
    67    2.395497544285e-04
    68   -2.885576831474e-09
    69    3.750876410960e-08
    70   -7.040442102623e-11
    71   -1.616536691950e-10
    72    1.981938873564e-08
    73    6.208978003015e-09
    74    5.874739523939e-11
    75    4.180928426970e-11
    76    1.224104703046e-02
    77   -1.082730401263e-07
    78   -7.199194932253e-08
    79    1.577998298535e-02
    80    6.743172562446e-08
    81    5.708699324625e-08
    82    5.646435047633e-03
    83   -1.118483730991e-10
    84    5.272008893731e-03
    85    3.471160380050e-03
    86    1.593356107392e-10
    87   -7.423228488641e-11
    88    8.590547657816e-10
    89   -3.344780706671e-04
    90    1.435360512175e-03
    91    4.278184397286e-08
    92   -1.238139803441e-08
    93   -7.690567433563e-11
    94   -1.423961689090e-10
    95    1.795179601240e-08
    96   -9.727701469083e-08
    97    2.464089621346e-10
    98   -2.587656211631e-10
    99   -6.181941063436e-02
   100   -1.393945070280e-07
   101    7.066952752692e-08
   102   -5.669131550039e-02
   103    8.675589078625e-08
   104   -6.306339401982e-08
   105   -1.724728938384e-02
   106   -4.853266788944e-11
   107    1.934148820278e-03
   108   -2.501470751712e-03
   109   -1.204976966263e-10
   110   -1.940489782068e-10
   111    5.357537376676e-10
   112   -2.769436913561e-03
   113   -4.889987603758e-03
   114   -3.341149535287e-08
   115   -3.536499473949e-08
   116    3.232449285234e-11
   117    1.313172172457e-10
   118    6.462278023986e-09
   119    1.596306613524e-07
   120   -2.429439189099e-10
   121    1.043952058790e-11
   122   -4.455753199014e-02
   123   -2.254371185526e-08
   124    1.627375384610e-07
   125   -3.984125809540e-02
   126    6.586711137890e-08
   127   -9.566018162922e-08
   128   -8.473747448271e-03
   129   -2.414719662033e-10
   130   -1.157522725236e-02
   131   -1.070750144611e-03
   132    1.334517731886e-10
   133    2.755746439809e-10
   134    7.815115186307e-10
   135    3.940723783825e-03
   136   -4.488039621000e-03
   137    5.284500437295e-10
   138    4.893169746572e-08
   139   -2.996693349995e-10
   140   -5.162315731955e-10
   141    3.050985479431e-09
   142   -1.549674684117e-07
   143    3.478011294740e-10
   144   -6.199668695754e-11
   145    1.463561718695e-01
   146   -1.587259741350e-08
   147   -3.461990417929e-10
   148    1.235973335427e-01
   149   -3.755730747454e-08
   150   -6.072110819947e-08