[Molden Format]
[Atoms] (Angs)
  C      1    6      5.38708610      1.19101114     -0.00000000
  C      2    6      3.99189070      1.06071126     -0.00000000
  C      3    6      6.21309044      0.04921471      0.00000000
  C      4    6      5.63456771     -1.23001120      0.00000000
  C      5    6      4.23545543     -1.36536687      0.00000000
  C      6    6      3.41393550     -0.22601998      0.00000000
  N      7    7      1.99796605     -0.48702359      0.00000000
  N      8    7      1.29679689      0.55718855     -0.00000000
  C      9    6     -0.11397051      0.31959694     -0.00000000
  C     10    6     -0.92868597      1.46447214     -0.00000000
  C     11    6     -2.32567437      1.35269118      0.00000000
  C     12    6     -2.94457877      0.08020355     -0.00000000
  C     13    6     -2.10990697     -1.07107689      0.00000000
  C     14    6     -0.71875824     -0.95680710     -0.00000000
  H     15    1      5.83777935      2.19011218     -0.00000000
  H     16    1      3.33801096      1.93660822     -0.00000000
  H     17    1      7.30322960      0.16059225     -0.00000000
  H     18    1      6.26985689     -2.12272736      0.00000000
  H     19    1      3.75657799     -2.35020309      0.00000000
  H     20    1     -0.44330594      2.44685805     -0.00000000
  H     21    1     -2.95781245      2.24776347      0.00000000
  H     22    1     -2.58563428     -2.05875591      0.00000000
  H     23    1     -0.08171270     -1.84587005     -0.00000000
  O     24    8     -4.27956295     -0.04243733     -0.00000000
 Ca     25   20     -6.38352663     -0.23838735     -0.00000000
[GTO]
1    0
S    8    1.000000
   6.66500000E+03    6.92000000E-04 
   1.00000000E+03    5.32900000E-03 
   2.28000000E+02    2.70770000E-02 
   6.47100000E+01    1.01718000E-01 
   2.10600000E+01    2.74740000E-01 
   7.49500000E+00    4.48564000E-01 
   2.79700000E+00    2.85074000E-01 
   5.21500000E-01    1.52040000E-02 
S    8    1.000000
   6.66500000E+03   -1.46000000E-04 
   1.00000000E+03   -1.15400000E-03 
   2.28000000E+02   -5.72500000E-03 
   6.47100000E+01   -2.33120000E-02 
   2.10600000E+01   -6.39550000E-02 
   7.49500000E+00   -1.49981000E-01 
   2.79700000E+00   -1.27262000E-01 
   5.21500000E-01    5.44529000E-01 
S    1    1.000000
   1.59600000E-01    1.00000000E+00 
S    1    1.000000
   4.69000000E-02    1.00000000E+00 
P    3    1.000000
   9.43900000E+00    3.81090000E-02 
   2.00200000E+00    2.09480000E-01 
   5.45600000E-01    5.08557000E-01 
P    1    1.000000
   1.51700000E-01    1.00000000E+00 
P    1    1.000000
   4.04100000E-02    1.00000000E+00 
D    1    1.000000
   5.50000000E-01    1.00000000E+00 
D    1    1.000000
   1.51000000E-01    1.00000000E+00 

2    0
S    8    1.000000
   6.66500000E+03    6.92000000E-04 
   1.00000000E+03    5.32900000E-03 
   2.28000000E+02    2.70770000E-02 
   6.47100000E+01    1.01718000E-01 
   2.10600000E+01    2.74740000E-01 
   7.49500000E+00    4.48564000E-01 
   2.79700000E+00    2.85074000E-01 
   5.21500000E-01    1.52040000E-02 
S    8    1.000000
   6.66500000E+03   -1.46000000E-04 
   1.00000000E+03   -1.15400000E-03 
   2.28000000E+02   -5.72500000E-03 
   6.47100000E+01   -2.33120000E-02 
   2.10600000E+01   -6.39550000E-02 
   7.49500000E+00   -1.49981000E-01 
   2.79700000E+00   -1.27262000E-01 
   5.21500000E-01    5.44529000E-01 
S    1    1.000000
   1.59600000E-01    1.00000000E+00 
S    1    1.000000
   4.69000000E-02    1.00000000E+00 
P    3    1.000000
   9.43900000E+00    3.81090000E-02 
   2.00200000E+00    2.09480000E-01 
   5.45600000E-01    5.08557000E-01 
P    1    1.000000
   1.51700000E-01    1.00000000E+00 
P    1    1.000000
   4.04100000E-02    1.00000000E+00 
D    1    1.000000
   5.50000000E-01    1.00000000E+00 
D    1    1.000000
   1.51000000E-01    1.00000000E+00 

3    0
S    8    1.000000
   6.66500000E+03    6.92000000E-04 
   1.00000000E+03    5.32900000E-03 
   2.28000000E+02    2.70770000E-02 
   6.47100000E+01    1.01718000E-01 
   2.10600000E+01    2.74740000E-01 
   7.49500000E+00    4.48564000E-01 
   2.79700000E+00    2.85074000E-01 
   5.21500000E-01    1.52040000E-02 
S    8    1.000000
   6.66500000E+03   -1.46000000E-04 
   1.00000000E+03   -1.15400000E-03 
   2.28000000E+02   -5.72500000E-03 
   6.47100000E+01   -2.33120000E-02 
   2.10600000E+01   -6.39550000E-02 
   7.49500000E+00   -1.49981000E-01 
   2.79700000E+00   -1.27262000E-01 
   5.21500000E-01    5.44529000E-01 
S    1    1.000000
   1.59600000E-01    1.00000000E+00 
S    1    1.000000
   4.69000000E-02    1.00000000E+00 
P    3    1.000000
   9.43900000E+00    3.81090000E-02 
   2.00200000E+00    2.09480000E-01 
   5.45600000E-01    5.08557000E-01 
P    1    1.000000
   1.51700000E-01    1.00000000E+00 
P    1    1.000000
   4.04100000E-02    1.00000000E+00 
D    1    1.000000
   5.50000000E-01    1.00000000E+00 
D    1    1.000000
   1.51000000E-01    1.00000000E+00 

4    0
S    8    1.000000
   6.66500000E+03    6.92000000E-04 
   1.00000000E+03    5.32900000E-03 
   2.28000000E+02    2.70770000E-02 
   6.47100000E+01    1.01718000E-01 
   2.10600000E+01    2.74740000E-01 
   7.49500000E+00    4.48564000E-01 
   2.79700000E+00    2.85074000E-01 
   5.21500000E-01    1.52040000E-02 
S    8    1.000000
   6.66500000E+03   -1.46000000E-04 
   1.00000000E+03   -1.15400000E-03 
   2.28000000E+02   -5.72500000E-03 
   6.47100000E+01   -2.33120000E-02 
   2.10600000E+01   -6.39550000E-02 
   7.49500000E+00   -1.49981000E-01 
   2.79700000E+00   -1.27262000E-01 
   5.21500000E-01    5.44529000E-01 
S    1    1.000000
   1.59600000E-01    1.00000000E+00 
S    1    1.000000
   4.69000000E-02    1.00000000E+00 
P    3    1.000000
   9.43900000E+00    3.81090000E-02 
   2.00200000E+00    2.09480000E-01 
   5.45600000E-01    5.08557000E-01 
P    1    1.000000
   1.51700000E-01    1.00000000E+00 
P    1    1.000000
   4.04100000E-02    1.00000000E+00 
D    1    1.000000
   5.50000000E-01    1.00000000E+00 
D    1    1.000000
   1.51000000E-01    1.00000000E+00 

5    0
S    8    1.000000
   6.66500000E+03    6.92000000E-04 
   1.00000000E+03    5.32900000E-03 
   2.28000000E+02    2.70770000E-02 
   6.47100000E+01    1.01718000E-01 
   2.10600000E+01    2.74740000E-01 
   7.49500000E+00    4.48564000E-01 
   2.79700000E+00    2.85074000E-01 
   5.21500000E-01    1.52040000E-02 
S    8    1.000000
   6.66500000E+03   -1.46000000E-04 
   1.00000000E+03   -1.15400000E-03 
   2.28000000E+02   -5.72500000E-03 
   6.47100000E+01   -2.33120000E-02 
   2.10600000E+01   -6.39550000E-02 
   7.49500000E+00   -1.49981000E-01 
   2.79700000E+00   -1.27262000E-01 
   5.21500000E-01    5.44529000E-01 
S    1    1.000000
   1.59600000E-01    1.00000000E+00 
S    1    1.000000
   4.69000000E-02    1.00000000E+00 
P    3    1.000000
   9.43900000E+00    3.81090000E-02 
   2.00200000E+00    2.09480000E-01 
   5.45600000E-01    5.08557000E-01 
P    1    1.000000
   1.51700000E-01    1.00000000E+00 
P    1    1.000000
   4.04100000E-02    1.00000000E+00 
D    1    1.000000
   5.50000000E-01    1.00000000E+00 
D    1    1.000000
   1.51000000E-01    1.00000000E+00 

6    0
S    8    1.000000
   6.66500000E+03    6.92000000E-04 
   1.00000000E+03    5.32900000E-03 
   2.28000000E+02    2.70770000E-02 
   6.47100000E+01    1.01718000E-01 
   2.10600000E+01    2.74740000E-01 
   7.49500000E+00    4.48564000E-01 
   2.79700000E+00    2.85074000E-01 
   5.21500000E-01    1.52040000E-02 
S    8    1.000000
   6.66500000E+03   -1.46000000E-04 
   1.00000000E+03   -1.15400000E-03 
   2.28000000E+02   -5.72500000E-03 
   6.47100000E+01   -2.33120000E-02 
   2.10600000E+01   -6.39550000E-02 
   7.49500000E+00   -1.49981000E-01 
   2.79700000E+00   -1.27262000E-01 
   5.21500000E-01    5.44529000E-01 
S    1    1.000000
   1.59600000E-01    1.00000000E+00 
S    1    1.000000
   4.69000000E-02    1.00000000E+00 
P    3    1.000000
   9.43900000E+00    3.81090000E-02 
   2.00200000E+00    2.09480000E-01 
   5.45600000E-01    5.08557000E-01 
P    1    1.000000
   1.51700000E-01    1.00000000E+00 
P    1    1.000000
   4.04100000E-02    1.00000000E+00 
D    1    1.000000
   5.50000000E-01    1.00000000E+00 
D    1    1.000000
   1.51000000E-01    1.00000000E+00 

7    0
S    8    1.000000
   9.04600000E+03    7.00000000E-04 
   1.35700000E+03    5.38900000E-03 
   3.09300000E+02    2.74060000E-02 
   8.77300000E+01    1.03207000E-01 
   2.85600000E+01    2.78723000E-01 
   1.02100000E+01    4.48540000E-01 
   3.83800000E+00    2.78238000E-01 
   7.46600000E-01    1.54400000E-02 
S    8    1.000000
   9.04600000E+03   -1.53000000E-04 
   1.35700000E+03   -1.20800000E-03 
   3.09300000E+02   -5.99200000E-03 
   8.77300000E+01   -2.45440000E-02 
   2.85600000E+01   -6.74590000E-02 
   1.02100000E+01   -1.58078000E-01 
   3.83800000E+00   -1.21831000E-01 
   7.46600000E-01    5.49003000E-01 
S    1    1.000000
   2.24800000E-01    1.00000000E+00 
S    1    1.000000
   6.12400000E-02    1.00000000E+00 
P    3    1.000000
   1.35500000E+01    3.99190000E-02 
   2.91700000E+00    2.17169000E-01 
   7.97300000E-01    5.10319000E-01 
P    1    1.000000
   2.18500000E-01    1.00000000E+00 
P    1    1.000000
   5.61100000E-02    1.00000000E+00 
D    1    1.000000
   8.17000000E-01    1.00000000E+00 
D    1    1.000000
   2.30000000E-01    1.00000000E+00 

8    0
S    8    1.000000
   9.04600000E+03    7.00000000E-04 
   1.35700000E+03    5.38900000E-03 
   3.09300000E+02    2.74060000E-02 
   8.77300000E+01    1.03207000E-01 
   2.85600000E+01    2.78723000E-01 
   1.02100000E+01    4.48540000E-01 
   3.83800000E+00    2.78238000E-01 
   7.46600000E-01    1.54400000E-02 
S    8    1.000000
   9.04600000E+03   -1.53000000E-04 
   1.35700000E+03   -1.20800000E-03 
   3.09300000E+02   -5.99200000E-03 
   8.77300000E+01   -2.45440000E-02 
   2.85600000E+01   -6.74590000E-02 
   1.02100000E+01   -1.58078000E-01 
   3.83800000E+00   -1.21831000E-01 
   7.46600000E-01    5.49003000E-01 
S    1    1.000000
   2.24800000E-01    1.00000000E+00 
S    1    1.000000
   6.12400000E-02    1.00000000E+00 
P    3    1.000000
   1.35500000E+01    3.99190000E-02 
   2.91700000E+00    2.17169000E-01 
   7.97300000E-01    5.10319000E-01 
P    1    1.000000
   2.18500000E-01    1.00000000E+00 
P    1    1.000000
   5.61100000E-02    1.00000000E+00 
D    1    1.000000
   8.17000000E-01    1.00000000E+00 
D    1    1.000000
   2.30000000E-01    1.00000000E+00 

9    0
S    8    1.000000
   6.66500000E+03    6.92000000E-04 
   1.00000000E+03    5.32900000E-03 
   2.28000000E+02    2.70770000E-02 
   6.47100000E+01    1.01718000E-01 
   2.10600000E+01    2.74740000E-01 
   7.49500000E+00    4.48564000E-01 
   2.79700000E+00    2.85074000E-01 
   5.21500000E-01    1.52040000E-02 
S    8    1.000000
   6.66500000E+03   -1.46000000E-04 
   1.00000000E+03   -1.15400000E-03 
   2.28000000E+02   -5.72500000E-03 
   6.47100000E+01   -2.33120000E-02 
   2.10600000E+01   -6.39550000E-02 
   7.49500000E+00   -1.49981000E-01 
   2.79700000E+00   -1.27262000E-01 
   5.21500000E-01    5.44529000E-01 
S    1    1.000000
   1.59600000E-01    1.00000000E+00 
S    1    1.000000
   4.69000000E-02    1.00000000E+00 
P    3    1.000000
   9.43900000E+00    3.81090000E-02 
   2.00200000E+00    2.09480000E-01 
   5.45600000E-01    5.08557000E-01 
P    1    1.000000
   1.51700000E-01    1.00000000E+00 
P    1    1.000000
   4.04100000E-02    1.00000000E+00 
D    1    1.000000
   5.50000000E-01    1.00000000E+00 
D    1    1.000000
   1.51000000E-01    1.00000000E+00 

10    0
S    8    1.000000
   6.66500000E+03    6.92000000E-04 
   1.00000000E+03    5.32900000E-03 
   2.28000000E+02    2.70770000E-02 
   6.47100000E+01    1.01718000E-01 
   2.10600000E+01    2.74740000E-01 
   7.49500000E+00    4.48564000E-01 
   2.79700000E+00    2.85074000E-01 
   5.21500000E-01    1.52040000E-02 
S    8    1.000000
   6.66500000E+03   -1.46000000E-04 
   1.00000000E+03   -1.15400000E-03 
   2.28000000E+02   -5.72500000E-03 
   6.47100000E+01   -2.33120000E-02 
   2.10600000E+01   -6.39550000E-02 
   7.49500000E+00   -1.49981000E-01 
   2.79700000E+00   -1.27262000E-01 
   5.21500000E-01    5.44529000E-01 
S    1    1.000000
   1.59600000E-01    1.00000000E+00 
S    1    1.000000
   4.69000000E-02    1.00000000E+00 
P    3    1.000000
   9.43900000E+00    3.81090000E-02 
   2.00200000E+00    2.09480000E-01 
   5.45600000E-01    5.08557000E-01 
P    1    1.000000
   1.51700000E-01    1.00000000E+00 
P    1    1.000000
   4.04100000E-02    1.00000000E+00 
D    1    1.000000
   5.50000000E-01    1.00000000E+00 
D    1    1.000000
   1.51000000E-01    1.00000000E+00 

11    0
S    8    1.000000
   6.66500000E+03    6.92000000E-04 
   1.00000000E+03    5.32900000E-03 
   2.28000000E+02    2.70770000E-02 
   6.47100000E+01    1.01718000E-01 
   2.10600000E+01    2.74740000E-01 
   7.49500000E+00    4.48564000E-01 
   2.79700000E+00    2.85074000E-01 
   5.21500000E-01    1.52040000E-02 
S    8    1.000000
   6.66500000E+03   -1.46000000E-04 
   1.00000000E+03   -1.15400000E-03 
   2.28000000E+02   -5.72500000E-03 
   6.47100000E+01   -2.33120000E-02 
   2.10600000E+01   -6.39550000E-02 
   7.49500000E+00   -1.49981000E-01 
   2.79700000E+00   -1.27262000E-01 
   5.21500000E-01    5.44529000E-01 
S    1    1.000000
   1.59600000E-01    1.00000000E+00 
S    1    1.000000
   4.69000000E-02    1.00000000E+00 
P    3    1.000000
   9.43900000E+00    3.81090000E-02 
   2.00200000E+00    2.09480000E-01 
   5.45600000E-01    5.08557000E-01 
P    1    1.000000
   1.51700000E-01    1.00000000E+00 
P    1    1.000000
   4.04100000E-02    1.00000000E+00 
D    1    1.000000
   5.50000000E-01    1.00000000E+00 
D    1    1.000000
   1.51000000E-01    1.00000000E+00 

12    0
S    8    1.000000
   6.66500000E+03    6.92000000E-04 
   1.00000000E+03    5.32900000E-03 
   2.28000000E+02    2.70770000E-02 
   6.47100000E+01    1.01718000E-01 
   2.10600000E+01    2.74740000E-01 
   7.49500000E+00    4.48564000E-01 
   2.79700000E+00    2.85074000E-01 
   5.21500000E-01    1.52040000E-02 
S    8    1.000000
   6.66500000E+03   -1.46000000E-04 
   1.00000000E+03   -1.15400000E-03 
   2.28000000E+02   -5.72500000E-03 
   6.47100000E+01   -2.33120000E-02 
   2.10600000E+01   -6.39550000E-02 
   7.49500000E+00   -1.49981000E-01 
   2.79700000E+00   -1.27262000E-01 
   5.21500000E-01    5.44529000E-01 
S    1    1.000000
   1.59600000E-01    1.00000000E+00 
S    1    1.000000
   4.69000000E-02    1.00000000E+00 
P    3    1.000000
   9.43900000E+00    3.81090000E-02 
   2.00200000E+00    2.09480000E-01 
   5.45600000E-01    5.08557000E-01 
P    1    1.000000
   1.51700000E-01    1.00000000E+00 
P    1    1.000000
   4.04100000E-02    1.00000000E+00 
D    1    1.000000
   5.50000000E-01    1.00000000E+00 
D    1    1.000000
   1.51000000E-01    1.00000000E+00 

13    0
S    8    1.000000
   6.66500000E+03    6.92000000E-04 
   1.00000000E+03    5.32900000E-03 
   2.28000000E+02    2.70770000E-02 
   6.47100000E+01    1.01718000E-01 
   2.10600000E+01    2.74740000E-01 
   7.49500000E+00    4.48564000E-01 
   2.79700000E+00    2.85074000E-01 
   5.21500000E-01    1.52040000E-02 
S    8    1.000000
   6.66500000E+03   -1.46000000E-04 
   1.00000000E+03   -1.15400000E-03 
   2.28000000E+02   -5.72500000E-03 
   6.47100000E+01   -2.33120000E-02 
   2.10600000E+01   -6.39550000E-02 
   7.49500000E+00   -1.49981000E-01 
   2.79700000E+00   -1.27262000E-01 
   5.21500000E-01    5.44529000E-01 
S    1    1.000000
   1.59600000E-01    1.00000000E+00 
S    1    1.000000
   4.69000000E-02    1.00000000E+00 
P    3    1.000000
   9.43900000E+00    3.81090000E-02 
   2.00200000E+00    2.09480000E-01 
   5.45600000E-01    5.08557000E-01 
P    1    1.000000
   1.51700000E-01    1.00000000E+00 
P    1    1.000000
   4.04100000E-02    1.00000000E+00 
D    1    1.000000
   5.50000000E-01    1.00000000E+00 
D    1    1.000000
   1.51000000E-01    1.00000000E+00 

14    0
S    8    1.000000
   6.66500000E+03    6.92000000E-04 
   1.00000000E+03    5.32900000E-03 
   2.28000000E+02    2.70770000E-02 
   6.47100000E+01    1.01718000E-01 
   2.10600000E+01    2.74740000E-01 
   7.49500000E+00    4.48564000E-01 
   2.79700000E+00    2.85074000E-01 
   5.21500000E-01    1.52040000E-02 
S    8    1.000000
   6.66500000E+03   -1.46000000E-04 
   1.00000000E+03   -1.15400000E-03 
   2.28000000E+02   -5.72500000E-03 
   6.47100000E+01   -2.33120000E-02 
   2.10600000E+01   -6.39550000E-02 
   7.49500000E+00   -1.49981000E-01 
   2.79700000E+00   -1.27262000E-01 
   5.21500000E-01    5.44529000E-01 
S    1    1.000000
   1.59600000E-01    1.00000000E+00 
S    1    1.000000
   4.69000000E-02    1.00000000E+00 
P    3    1.000000
   9.43900000E+00    3.81090000E-02 
   2.00200000E+00    2.09480000E-01 
   5.45600000E-01    5.08557000E-01 
P    1    1.000000
   1.51700000E-01    1.00000000E+00 
P    1    1.000000
   4.04100000E-02    1.00000000E+00 
D    1    1.000000
   5.50000000E-01    1.00000000E+00 
D    1    1.000000
   1.51000000E-01    1.00000000E+00 

15    0
S    3    1.000000
   1.30100000E+01    1.96850000E-02 
   1.96200000E+00    1.37977000E-01 
   4.44600000E-01    4.78148000E-01 
S    1    1.000000
   1.22000000E-01    1.00000000E+00 
S    1    1.000000
   2.97400000E-02    1.00000000E+00 
P    1    1.000000
   7.27000000E-01    1.00000000E+00 
P    1    1.000000
   1.41000000E-01    1.00000000E+00 

16    0
S    3    1.000000
   1.30100000E+01    1.96850000E-02 
   1.96200000E+00    1.37977000E-01 
   4.44600000E-01    4.78148000E-01 
S    1    1.000000
   1.22000000E-01    1.00000000E+00 
S    1    1.000000
   2.97400000E-02    1.00000000E+00 
P    1    1.000000
   7.27000000E-01    1.00000000E+00 
P    1    1.000000
   1.41000000E-01    1.00000000E+00 

17    0
S    3    1.000000
   1.30100000E+01    1.96850000E-02 
   1.96200000E+00    1.37977000E-01 
   4.44600000E-01    4.78148000E-01 
S    1    1.000000
   1.22000000E-01    1.00000000E+00 
S    1    1.000000
   2.97400000E-02    1.00000000E+00 
P    1    1.000000
   7.27000000E-01    1.00000000E+00 
P    1    1.000000
   1.41000000E-01    1.00000000E+00 

18    0
S    3    1.000000
   1.30100000E+01    1.96850000E-02 
   1.96200000E+00    1.37977000E-01 
   4.44600000E-01    4.78148000E-01 
S    1    1.000000
   1.22000000E-01    1.00000000E+00 
S    1    1.000000
   2.97400000E-02    1.00000000E+00 
P    1    1.000000
   7.27000000E-01    1.00000000E+00 
P    1    1.000000
   1.41000000E-01    1.00000000E+00 

19    0
S    3    1.000000
   1.30100000E+01    1.96850000E-02 
   1.96200000E+00    1.37977000E-01 
   4.44600000E-01    4.78148000E-01 
S    1    1.000000
   1.22000000E-01    1.00000000E+00 
S    1    1.000000
   2.97400000E-02    1.00000000E+00 
P    1    1.000000
   7.27000000E-01    1.00000000E+00 
P    1    1.000000
   1.41000000E-01    1.00000000E+00 

20    0
S    3    1.000000
   1.30100000E+01    1.96850000E-02 
   1.96200000E+00    1.37977000E-01 
   4.44600000E-01    4.78148000E-01 
S    1    1.000000
   1.22000000E-01    1.00000000E+00 
S    1    1.000000
   2.97400000E-02    1.00000000E+00 
P    1    1.000000
   7.27000000E-01    1.00000000E+00 
P    1    1.000000
   1.41000000E-01    1.00000000E+00 

21    0
S    3    1.000000
   1.30100000E+01    1.96850000E-02 
   1.96200000E+00    1.37977000E-01 
   4.44600000E-01    4.78148000E-01 
S    1    1.000000
   1.22000000E-01    1.00000000E+00 
S    1    1.000000
   2.97400000E-02    1.00000000E+00 
P    1    1.000000
   7.27000000E-01    1.00000000E+00 
P    1    1.000000
   1.41000000E-01    1.00000000E+00 

22    0
S    3    1.000000
   1.30100000E+01    1.96850000E-02 
   1.96200000E+00    1.37977000E-01 
   4.44600000E-01    4.78148000E-01 
S    1    1.000000
   1.22000000E-01    1.00000000E+00 
S    1    1.000000
   2.97400000E-02    1.00000000E+00 
P    1    1.000000
   7.27000000E-01    1.00000000E+00 
P    1    1.000000
   1.41000000E-01    1.00000000E+00 

23    0
S    3    1.000000
   1.30100000E+01    1.96850000E-02 
   1.96200000E+00    1.37977000E-01 
   4.44600000E-01    4.78148000E-01 
S    1    1.000000
   1.22000000E-01    1.00000000E+00 
S    1    1.000000
   2.97400000E-02    1.00000000E+00 
P    1    1.000000
   7.27000000E-01    1.00000000E+00 
P    1    1.000000
   1.41000000E-01    1.00000000E+00 

24    0
S    8    1.000000
   1.17200000E+04    7.10000000E-04 
   1.75900000E+03    5.47000000E-03 
   4.00800000E+02    2.78370000E-02 
   1.13700000E+02    1.04800000E-01 
   3.70300000E+01    2.83062000E-01 
   1.32700000E+01    4.48719000E-01 
   5.02500000E+00    2.70952000E-01 
   1.01300000E+00    1.54580000E-02 
S    8    1.000000
   1.17200000E+04   -1.60000000E-04 
   1.75900000E+03   -1.26300000E-03 
   4.00800000E+02   -6.26700000E-03 
   1.13700000E+02   -2.57160000E-02 
   3.70300000E+01   -7.09240000E-02 
   1.32700000E+01   -1.65411000E-01 
   5.02500000E+00   -1.16955000E-01 
   1.01300000E+00    5.57368000E-01 
S    1    1.000000
   3.02300000E-01    1.00000000E+00 
S    1    1.000000
   7.89600000E-02    1.00000000E+00 
P    3    1.000000
   1.77000000E+01    4.30180000E-02 
   3.85400000E+00    2.28913000E-01 
   1.04600000E+00    5.08728000E-01 
P    1    1.000000
   2.75300000E-01    1.00000000E+00 
P    1    1.000000
   6.85600000E-02    1.00000000E+00 
D    1    1.000000
   1.18500000E+00    1.00000000E+00 
D    1    1.000000
   3.32000000E-01    1.00000000E+00 

25    0
S    15    1.000000
   6.34294000E+05    5.25596000E-05 
   8.13143400E+04    4.98068000E-04 
   1.67647900E+04    2.91602000E-03 
   4.42973000E+03    1.30856000E-02 
   1.37198800E+03    4.81108000E-02 
   4.75488100E+02    1.42721000E-01 
   1.79307600E+02    3.14824000E-01 
   7.24040900E+01    4.06967000E-01 
   3.06589900E+01    2.07434000E-01 
   9.83698700E+00    1.66181000E-02 
   3.99945900E+00   -2.56523000E-03 
   1.02701000E+00    8.39702000E-04 
   4.26654600E-01   -4.47647000E-04 
   6.36336500E-02    1.20064000E-04 
   2.62631700E-02   -6.04079000E-05 
S    15    1.000000
   6.34294000E+05   -1.52182000E-05 
   8.13143400E+04   -1.45233000E-04 
   1.67647900E+04   -8.43929000E-04 
   4.42973000E+03   -3.86276000E-03 
   1.37198800E+03   -1.42692000E-02 
   4.75488100E+02   -4.57714000E-02 
   1.79307600E+02   -1.12259000E-01 
   7.24040900E+01   -2.09337000E-01 
   3.06589900E+01   -1.18169000E-01 
   9.83698700E+00    4.98551000E-01 
   3.99945900E+00    6.14790000E-01 
   1.02701000E+00    5.89238000E-02 
   4.26654600E-01   -1.34539000E-02 
   6.36336500E-02    3.29146000E-03 
   2.62631700E-02   -1.62419000E-03 
S    15    1.000000
   6.34294000E+05    5.25601000E-06 
   8.13143400E+04    4.99945000E-05 
   1.67647900E+04    2.91984000E-04 
   4.42973000E+03    1.32884000E-03 
   1.37198800E+03    4.96095000E-03 
   4.75488100E+02    1.58367000E-02 
   1.79307600E+02    4.00138000E-02 
   7.24040900E+01    7.55025000E-02 
   3.06589900E+01    4.88318000E-02 
   9.83698700E+00   -2.53013000E-01 
   3.99945900E+00   -4.80449000E-01 
   1.02701000E+00    5.65877000E-01 
   4.26654600E-01    6.58327000E-01 
   6.36336500E-02    2.59175000E-02 
   2.62631700E-02   -9.51307000E-03 
S    15    1.000000
   6.34294000E+05   -1.25738000E-06 
   8.13143400E+04   -1.19254000E-05 
   1.67647900E+04   -6.99428000E-05 
   4.42973000E+03   -3.16569000E-04 
   1.37198800E+03   -1.19073000E-03 
   4.75488100E+02   -3.76860000E-03 
   1.79307600E+02   -9.66122000E-03 
   7.24040900E+01   -1.79561000E-02 
   3.06589900E+01   -1.23463000E-02 
   9.83698700E+00    6.48503000E-02 
   3.99945900E+00    1.24213000E-01 
   1.02701000E+00   -1.73178000E-01 
   4.26654600E-01   -3.79988000E-01 
   6.36336500E-02    6.57570000E-01 
   2.62631700E-02    4.93284000E-01 
S    1    1.000000
   2.62631700E-02    1.00000000E+00 
S    1    1.000000
   1.08400000E-02    1.00000000E+00 
P    11    1.000000
   1.23652800E+03    1.61050000E-03 
   2.77429200E+02    1.43720000E-02 
   8.65134700E+01    7.15876000E-02 
   3.16262200E+01    2.25429000E-01 
   1.25001500E+01    4.25126000E-01 
   5.13409400E+00    3.81133000E-01 
   2.00896800E+00    8.27503000E-02 
   8.38153900E-01   -3.63253000E-03 
   3.37704100E-01    1.84741000E-03 
   8.07092900E-02   -5.24557000E-04 
   2.90333400E-02    2.02329000E-04 
P    11    1.000000
   1.23652800E+03   -5.26787000E-04 
   2.77429200E+02   -4.70480000E-03 
   8.65134700E+01   -2.40594000E-02 
   3.16262200E+01   -7.80806000E-02 
   1.25001500E+01   -1.57752000E-01 
   5.13409400E+00   -1.34782000E-01 
   2.00896800E+00    2.24136000E-01 
   8.38153900E-01    5.57516000E-01 
   3.37704100E-01    3.56789000E-01 
   8.07092900E-02    2.69438000E-02 
   2.90333400E-02   -4.96010000E-03 
P    11    1.000000
   1.23652800E+03    1.10310000E-04 
   2.77429200E+02    9.78122000E-04 
   8.65134700E+01    5.05273000E-03 
   3.16262200E+01    1.62816000E-02 
   1.25001500E+01    3.36093000E-02 
   5.13409400E+00    2.72352000E-02 
   2.00896800E+00   -5.25284000E-02 
   8.38153900E-01   -1.46018000E-01 
   3.37704100E-01   -1.07776000E-01 
   8.07092900E-02    5.04039000E-01 
   2.90333400E-02    6.07438000E-01 
P    1    1.000000
   2.90333400E-02    1.00000000E+00 
P    1    1.000000
   1.04400000E-02    1.00000000E+00 
D    5    1.000000
   9.70927900E+00    3.52030000E-02 
   2.42484600E+00    1.55891000E-01 
   7.01808100E-01    3.18767000E-01 
   1.87739100E-01    4.62295000E-01 
   4.81882700E-02    4.61675000E-01 
D    1    1.000000
   4.81882700E-02    1.00000000E+00 
D    1    1.000000
   1.92800000E-02    1.00000000E+00 

[MO]
Sym=X
Ene= -0.975008
Spin=Alpha
Occup=1
     1    1.222992233537e-05
     2   -2.020830435820e-05
     3   -6.607094899145e-03
     4    1.327712938049e-02
     5    8.718966131121e-05
     6   -4.420733697401e-06
     7    7.466632998681e-11
     8    5.104514020814e-03
     9    4.065358829854e-03
    10   -9.557787108198e-11
    11    4.390400148033e-03
    12   -1.170772306121e-02
    13    6.475947372100e-10
    14   -1.814039914151e-06
    15   -1.678077247528e-11
    16    9.039869612185e-12
    17   -2.817913319880e-05
    18    2.011895191449e-05
    19   -3.838798609664e-05
    20    1.962566350149e-10
    21    6.445987484356e-11
    22    3.732034645558e-04
    23   -3.040050625228e-03
    24   -2.763051612952e-05
    25    8.359555022496e-05
    26   -1.378119245912e-03
    27   -2.710295121553e-02
    28   -1.728010650733e-04
    29   -3.191397232075e-05
    30   -8.317724389451e-11
    31    3.773759658064e-03
    32    9.398961852281e-04
    33    1.823835265389e-10
    34    3.690565339546e-02
    35    2.771442683712e-03
    36   -2.324446189322e-09
    37   -2.157493664447e-05
    38    5.569836387071e-12
    39    2.974504184881e-13
    40   -1.654802835780e-05
    41    5.105192987818e-05
    42   -2.619647016724e-04
    43    2.925419260651e-10
    44   -1.267530296122e-10
    45    5.331332507934e-03
    46   -3.588303431799e-03
    47   -3.715574450743e-05
    48   -4.165892201026e-05
    49   -1.092676562592e-03
    50   -2.872471455277e-02
    51   -6.465888913203e-06
    52    2.355178822422e-05
    53   -1.136076936136e-10
    54   -2.020401938505e-03
    55   -2.268063006870e-03
    56    1.052196919634e-10
    57    1.442598522175e-03
    58   -4.374202221630e-03
    59   -7.823720920969e-10
    60   -1.800003655908e-05
    61    3.391935471378e-12
    62   -2.564365133284e-12
    63    5.078864245929e-06
    64    4.829211049418e-06
    65    1.534423153781e-05
    66   -1.120645418350e-10
    67   -1.532090448489e-10
    68    7.028225530634e-04
    69   -1.986202238848e-04
    70   -8.602395540703e-05
    71   -8.600248427905e-05
    72    4.268397398035e-03
    73    2.899594745265e-02
    74   -1.121278133137e-04
    75    1.215980911722e-05
    76   -3.905427182694e-11
    77   -3.466121440361e-04
    78   -3.743629534798e-03
    79   -3.560850355315e-10
    80   -7.687076405350e-03
    81    1.035698183497e-02
    82    2.220349255498e-09
    83    1.509969403070e-05
    84   -1.824670815758e-11
    85   -6.806471161184e-12
    86    5.659503091898e-06
    87    1.817532180684e-05
    88   -4.631131667432e-04
    89   -5.671897409245e-11
    90   -2.036260980795e-10
    91   -3.925928990934e-05
    92    3.216181381430e-04
    93   -3.999036854791e-05
    94   -1.660313309240e-04
    95    1.084894255204e-02
    96    3.364751082342e-02
    97    1.439110873862e-04
    98   -1.389645243748e-04
    99    1.227298497940e-10
   100   -5.627442427056e-03
   101    9.187513252051e-03
   102    2.868039157952e-10
   103    1.317596687426e-02
   104    8.030235415044e-03
   105   -3.846958010578e-09
   106   -5.299926781565e-05
   107    8.933538317619e-12
   108   -5.371779223323e-12
   109   -3.771050944461e-05
   110   -2.910787064636e-05
   111    2.572340750575e-04
   112    2.806340249984e-11
   113    2.099031920164e-10
   114   -1.002222271932e-03
   115   -6.111704855200e-04
   116    1.420945365407e-04
   117    3.417787698619e-04
   118    6.136882578182e-03
   119    1.539028694550e-01
   120   -2.543387009132e-04
   121    7.167073453440e-05
   122    1.064015451607e-11
   123   -8.175488478022e-03
   124    8.768849008990e-03
   125   -1.219845242249e-10
   126   -1.369738521639e-01
   127    2.117024587903e-02
   128    4.593753638296e-09
   129   -6.113172091454e-05
   130    1.388416649151e-11
   131   -4.911191277842e-12
   132    2.327070586106e-06
   133    9.282501399124e-05
   134    1.842180528143e-03
   135   -4.101546518538e-10
   136    6.362416787300e-11
   137    2.009751949041e-03
   138    6.012740029124e-03
   139   -1.761456097771e-05
   140    4.300862911463e-05
   141    4.072222829423e-03
   142    1.458581181827e-02
   143    1.515666822850e-04
   144   -7.113530434417e-04
   145   -5.004609097998e-11
   146   -4.507926550261e-03
   147    4.176400288817e-03
   148   -1.859109596627e-10
   149   -9.780658166485e-02
   150    9.196814549695e-03