[Molden Format]
[Atoms] (Angs)
  C      1    6      5.38708610      1.19101114     -0.00000000
  C      2    6      3.99189070      1.06071126     -0.00000000
  C      3    6      6.21309044      0.04921471      0.00000000
  C      4    6      5.63456771     -1.23001120      0.00000000
  C      5    6      4.23545543     -1.36536687      0.00000000
  C      6    6      3.41393550     -0.22601998      0.00000000
  N      7    7      1.99796605     -0.48702359      0.00000000
  N      8    7      1.29679689      0.55718855     -0.00000000
  C      9    6     -0.11397051      0.31959694     -0.00000000
  C     10    6     -0.92868597      1.46447214     -0.00000000
  C     11    6     -2.32567437      1.35269118      0.00000000
  C     12    6     -2.94457877      0.08020355     -0.00000000
  C     13    6     -2.10990697     -1.07107689      0.00000000
  C     14    6     -0.71875824     -0.95680710     -0.00000000
  H     15    1      5.83777935      2.19011218     -0.00000000
  H     16    1      3.33801096      1.93660822     -0.00000000
  H     17    1      7.30322960      0.16059225     -0.00000000
  H     18    1      6.26985689     -2.12272736      0.00000000
  H     19    1      3.75657799     -2.35020309      0.00000000
  H     20    1     -0.44330594      2.44685805     -0.00000000
  H     21    1     -2.95781245      2.24776347      0.00000000
  H     22    1     -2.58563428     -2.05875591      0.00000000
  H     23    1     -0.08171270     -1.84587005     -0.00000000
  O     24    8     -4.27956295     -0.04243733     -0.00000000
 Ca     25   20     -6.38352663     -0.23838735     -0.00000000
[GTO]
1    0
S    8    1.000000
   6.66500000E+03    6.92000000E-04 
   1.00000000E+03    5.32900000E-03 
   2.28000000E+02    2.70770000E-02 
   6.47100000E+01    1.01718000E-01 
   2.10600000E+01    2.74740000E-01 
   7.49500000E+00    4.48564000E-01 
   2.79700000E+00    2.85074000E-01 
   5.21500000E-01    1.52040000E-02 
S    8    1.000000
   6.66500000E+03   -1.46000000E-04 
   1.00000000E+03   -1.15400000E-03 
   2.28000000E+02   -5.72500000E-03 
   6.47100000E+01   -2.33120000E-02 
   2.10600000E+01   -6.39550000E-02 
   7.49500000E+00   -1.49981000E-01 
   2.79700000E+00   -1.27262000E-01 
   5.21500000E-01    5.44529000E-01 
S    1    1.000000
   1.59600000E-01    1.00000000E+00 
S    1    1.000000
   4.69000000E-02    1.00000000E+00 
P    3    1.000000
   9.43900000E+00    3.81090000E-02 
   2.00200000E+00    2.09480000E-01 
   5.45600000E-01    5.08557000E-01 
P    1    1.000000
   1.51700000E-01    1.00000000E+00 
P    1    1.000000
   4.04100000E-02    1.00000000E+00 
D    1    1.000000
   5.50000000E-01    1.00000000E+00 
D    1    1.000000
   1.51000000E-01    1.00000000E+00 

2    0
S    8    1.000000
   6.66500000E+03    6.92000000E-04 
   1.00000000E+03    5.32900000E-03 
   2.28000000E+02    2.70770000E-02 
   6.47100000E+01    1.01718000E-01 
   2.10600000E+01    2.74740000E-01 
   7.49500000E+00    4.48564000E-01 
   2.79700000E+00    2.85074000E-01 
   5.21500000E-01    1.52040000E-02 
S    8    1.000000
   6.66500000E+03   -1.46000000E-04 
   1.00000000E+03   -1.15400000E-03 
   2.28000000E+02   -5.72500000E-03 
   6.47100000E+01   -2.33120000E-02 
   2.10600000E+01   -6.39550000E-02 
   7.49500000E+00   -1.49981000E-01 
   2.79700000E+00   -1.27262000E-01 
   5.21500000E-01    5.44529000E-01 
S    1    1.000000
   1.59600000E-01    1.00000000E+00 
S    1    1.000000
   4.69000000E-02    1.00000000E+00 
P    3    1.000000
   9.43900000E+00    3.81090000E-02 
   2.00200000E+00    2.09480000E-01 
   5.45600000E-01    5.08557000E-01 
P    1    1.000000
   1.51700000E-01    1.00000000E+00 
P    1    1.000000
   4.04100000E-02    1.00000000E+00 
D    1    1.000000
   5.50000000E-01    1.00000000E+00 
D    1    1.000000
   1.51000000E-01    1.00000000E+00 

3    0
S    8    1.000000
   6.66500000E+03    6.92000000E-04 
   1.00000000E+03    5.32900000E-03 
   2.28000000E+02    2.70770000E-02 
   6.47100000E+01    1.01718000E-01 
   2.10600000E+01    2.74740000E-01 
   7.49500000E+00    4.48564000E-01 
   2.79700000E+00    2.85074000E-01 
   5.21500000E-01    1.52040000E-02 
S    8    1.000000
   6.66500000E+03   -1.46000000E-04 
   1.00000000E+03   -1.15400000E-03 
   2.28000000E+02   -5.72500000E-03 
   6.47100000E+01   -2.33120000E-02 
   2.10600000E+01   -6.39550000E-02 
   7.49500000E+00   -1.49981000E-01 
   2.79700000E+00   -1.27262000E-01 
   5.21500000E-01    5.44529000E-01 
S    1    1.000000
   1.59600000E-01    1.00000000E+00 
S    1    1.000000
   4.69000000E-02    1.00000000E+00 
P    3    1.000000
   9.43900000E+00    3.81090000E-02 
   2.00200000E+00    2.09480000E-01 
   5.45600000E-01    5.08557000E-01 
P    1    1.000000
   1.51700000E-01    1.00000000E+00 
P    1    1.000000
   4.04100000E-02    1.00000000E+00 
D    1    1.000000
   5.50000000E-01    1.00000000E+00 
D    1    1.000000
   1.51000000E-01    1.00000000E+00 

4    0
S    8    1.000000
   6.66500000E+03    6.92000000E-04 
   1.00000000E+03    5.32900000E-03 
   2.28000000E+02    2.70770000E-02 
   6.47100000E+01    1.01718000E-01 
   2.10600000E+01    2.74740000E-01 
   7.49500000E+00    4.48564000E-01 
   2.79700000E+00    2.85074000E-01 
   5.21500000E-01    1.52040000E-02 
S    8    1.000000
   6.66500000E+03   -1.46000000E-04 
   1.00000000E+03   -1.15400000E-03 
   2.28000000E+02   -5.72500000E-03 
   6.47100000E+01   -2.33120000E-02 
   2.10600000E+01   -6.39550000E-02 
   7.49500000E+00   -1.49981000E-01 
   2.79700000E+00   -1.27262000E-01 
   5.21500000E-01    5.44529000E-01 
S    1    1.000000
   1.59600000E-01    1.00000000E+00 
S    1    1.000000
   4.69000000E-02    1.00000000E+00 
P    3    1.000000
   9.43900000E+00    3.81090000E-02 
   2.00200000E+00    2.09480000E-01 
   5.45600000E-01    5.08557000E-01 
P    1    1.000000
   1.51700000E-01    1.00000000E+00 
P    1    1.000000
   4.04100000E-02    1.00000000E+00 
D    1    1.000000
   5.50000000E-01    1.00000000E+00 
D    1    1.000000
   1.51000000E-01    1.00000000E+00 

5    0
S    8    1.000000
   6.66500000E+03    6.92000000E-04 
   1.00000000E+03    5.32900000E-03 
   2.28000000E+02    2.70770000E-02 
   6.47100000E+01    1.01718000E-01 
   2.10600000E+01    2.74740000E-01 
   7.49500000E+00    4.48564000E-01 
   2.79700000E+00    2.85074000E-01 
   5.21500000E-01    1.52040000E-02 
S    8    1.000000
   6.66500000E+03   -1.46000000E-04 
   1.00000000E+03   -1.15400000E-03 
   2.28000000E+02   -5.72500000E-03 
   6.47100000E+01   -2.33120000E-02 
   2.10600000E+01   -6.39550000E-02 
   7.49500000E+00   -1.49981000E-01 
   2.79700000E+00   -1.27262000E-01 
   5.21500000E-01    5.44529000E-01 
S    1    1.000000
   1.59600000E-01    1.00000000E+00 
S    1    1.000000
   4.69000000E-02    1.00000000E+00 
P    3    1.000000
   9.43900000E+00    3.81090000E-02 
   2.00200000E+00    2.09480000E-01 
   5.45600000E-01    5.08557000E-01 
P    1    1.000000
   1.51700000E-01    1.00000000E+00 
P    1    1.000000
   4.04100000E-02    1.00000000E+00 
D    1    1.000000
   5.50000000E-01    1.00000000E+00 
D    1    1.000000
   1.51000000E-01    1.00000000E+00 

6    0
S    8    1.000000
   6.66500000E+03    6.92000000E-04 
   1.00000000E+03    5.32900000E-03 
   2.28000000E+02    2.70770000E-02 
   6.47100000E+01    1.01718000E-01 
   2.10600000E+01    2.74740000E-01 
   7.49500000E+00    4.48564000E-01 
   2.79700000E+00    2.85074000E-01 
   5.21500000E-01    1.52040000E-02 
S    8    1.000000
   6.66500000E+03   -1.46000000E-04 
   1.00000000E+03   -1.15400000E-03 
   2.28000000E+02   -5.72500000E-03 
   6.47100000E+01   -2.33120000E-02 
   2.10600000E+01   -6.39550000E-02 
   7.49500000E+00   -1.49981000E-01 
   2.79700000E+00   -1.27262000E-01 
   5.21500000E-01    5.44529000E-01 
S    1    1.000000
   1.59600000E-01    1.00000000E+00 
S    1    1.000000
   4.69000000E-02    1.00000000E+00 
P    3    1.000000
   9.43900000E+00    3.81090000E-02 
   2.00200000E+00    2.09480000E-01 
   5.45600000E-01    5.08557000E-01 
P    1    1.000000
   1.51700000E-01    1.00000000E+00 
P    1    1.000000
   4.04100000E-02    1.00000000E+00 
D    1    1.000000
   5.50000000E-01    1.00000000E+00 
D    1    1.000000
   1.51000000E-01    1.00000000E+00 

7    0
S    8    1.000000
   9.04600000E+03    7.00000000E-04 
   1.35700000E+03    5.38900000E-03 
   3.09300000E+02    2.74060000E-02 
   8.77300000E+01    1.03207000E-01 
   2.85600000E+01    2.78723000E-01 
   1.02100000E+01    4.48540000E-01 
   3.83800000E+00    2.78238000E-01 
   7.46600000E-01    1.54400000E-02 
S    8    1.000000
   9.04600000E+03   -1.53000000E-04 
   1.35700000E+03   -1.20800000E-03 
   3.09300000E+02   -5.99200000E-03 
   8.77300000E+01   -2.45440000E-02 
   2.85600000E+01   -6.74590000E-02 
   1.02100000E+01   -1.58078000E-01 
   3.83800000E+00   -1.21831000E-01 
   7.46600000E-01    5.49003000E-01 
S    1    1.000000
   2.24800000E-01    1.00000000E+00 
S    1    1.000000
   6.12400000E-02    1.00000000E+00 
P    3    1.000000
   1.35500000E+01    3.99190000E-02 
   2.91700000E+00    2.17169000E-01 
   7.97300000E-01    5.10319000E-01 
P    1    1.000000
   2.18500000E-01    1.00000000E+00 
P    1    1.000000
   5.61100000E-02    1.00000000E+00 
D    1    1.000000
   8.17000000E-01    1.00000000E+00 
D    1    1.000000
   2.30000000E-01    1.00000000E+00 

8    0
S    8    1.000000
   9.04600000E+03    7.00000000E-04 
   1.35700000E+03    5.38900000E-03 
   3.09300000E+02    2.74060000E-02 
   8.77300000E+01    1.03207000E-01 
   2.85600000E+01    2.78723000E-01 
   1.02100000E+01    4.48540000E-01 
   3.83800000E+00    2.78238000E-01 
   7.46600000E-01    1.54400000E-02 
S    8    1.000000
   9.04600000E+03   -1.53000000E-04 
   1.35700000E+03   -1.20800000E-03 
   3.09300000E+02   -5.99200000E-03 
   8.77300000E+01   -2.45440000E-02 
   2.85600000E+01   -6.74590000E-02 
   1.02100000E+01   -1.58078000E-01 
   3.83800000E+00   -1.21831000E-01 
   7.46600000E-01    5.49003000E-01 
S    1    1.000000
   2.24800000E-01    1.00000000E+00 
S    1    1.000000
   6.12400000E-02    1.00000000E+00 
P    3    1.000000
   1.35500000E+01    3.99190000E-02 
   2.91700000E+00    2.17169000E-01 
   7.97300000E-01    5.10319000E-01 
P    1    1.000000
   2.18500000E-01    1.00000000E+00 
P    1    1.000000
   5.61100000E-02    1.00000000E+00 
D    1    1.000000
   8.17000000E-01    1.00000000E+00 
D    1    1.000000
   2.30000000E-01    1.00000000E+00 

9    0
S    8    1.000000
   6.66500000E+03    6.92000000E-04 
   1.00000000E+03    5.32900000E-03 
   2.28000000E+02    2.70770000E-02 
   6.47100000E+01    1.01718000E-01 
   2.10600000E+01    2.74740000E-01 
   7.49500000E+00    4.48564000E-01 
   2.79700000E+00    2.85074000E-01 
   5.21500000E-01    1.52040000E-02 
S    8    1.000000
   6.66500000E+03   -1.46000000E-04 
   1.00000000E+03   -1.15400000E-03 
   2.28000000E+02   -5.72500000E-03 
   6.47100000E+01   -2.33120000E-02 
   2.10600000E+01   -6.39550000E-02 
   7.49500000E+00   -1.49981000E-01 
   2.79700000E+00   -1.27262000E-01 
   5.21500000E-01    5.44529000E-01 
S    1    1.000000
   1.59600000E-01    1.00000000E+00 
S    1    1.000000
   4.69000000E-02    1.00000000E+00 
P    3    1.000000
   9.43900000E+00    3.81090000E-02 
   2.00200000E+00    2.09480000E-01 
   5.45600000E-01    5.08557000E-01 
P    1    1.000000
   1.51700000E-01    1.00000000E+00 
P    1    1.000000
   4.04100000E-02    1.00000000E+00 
D    1    1.000000
   5.50000000E-01    1.00000000E+00 
D    1    1.000000
   1.51000000E-01    1.00000000E+00 

10    0
S    8    1.000000
   6.66500000E+03    6.92000000E-04 
   1.00000000E+03    5.32900000E-03 
   2.28000000E+02    2.70770000E-02 
   6.47100000E+01    1.01718000E-01 
   2.10600000E+01    2.74740000E-01 
   7.49500000E+00    4.48564000E-01 
   2.79700000E+00    2.85074000E-01 
   5.21500000E-01    1.52040000E-02 
S    8    1.000000
   6.66500000E+03   -1.46000000E-04 
   1.00000000E+03   -1.15400000E-03 
   2.28000000E+02   -5.72500000E-03 
   6.47100000E+01   -2.33120000E-02 
   2.10600000E+01   -6.39550000E-02 
   7.49500000E+00   -1.49981000E-01 
   2.79700000E+00   -1.27262000E-01 
   5.21500000E-01    5.44529000E-01 
S    1    1.000000
   1.59600000E-01    1.00000000E+00 
S    1    1.000000
   4.69000000E-02    1.00000000E+00 
P    3    1.000000
   9.43900000E+00    3.81090000E-02 
   2.00200000E+00    2.09480000E-01 
   5.45600000E-01    5.08557000E-01 
P    1    1.000000
   1.51700000E-01    1.00000000E+00 
P    1    1.000000
   4.04100000E-02    1.00000000E+00 
D    1    1.000000
   5.50000000E-01    1.00000000E+00 
D    1    1.000000
   1.51000000E-01    1.00000000E+00 

11    0
S    8    1.000000
   6.66500000E+03    6.92000000E-04 
   1.00000000E+03    5.32900000E-03 
   2.28000000E+02    2.70770000E-02 
   6.47100000E+01    1.01718000E-01 
   2.10600000E+01    2.74740000E-01 
   7.49500000E+00    4.48564000E-01 
   2.79700000E+00    2.85074000E-01 
   5.21500000E-01    1.52040000E-02 
S    8    1.000000
   6.66500000E+03   -1.46000000E-04 
   1.00000000E+03   -1.15400000E-03 
   2.28000000E+02   -5.72500000E-03 
   6.47100000E+01   -2.33120000E-02 
   2.10600000E+01   -6.39550000E-02 
   7.49500000E+00   -1.49981000E-01 
   2.79700000E+00   -1.27262000E-01 
   5.21500000E-01    5.44529000E-01 
S    1    1.000000
   1.59600000E-01    1.00000000E+00 
S    1    1.000000
   4.69000000E-02    1.00000000E+00 
P    3    1.000000
   9.43900000E+00    3.81090000E-02 
   2.00200000E+00    2.09480000E-01 
   5.45600000E-01    5.08557000E-01 
P    1    1.000000
   1.51700000E-01    1.00000000E+00 
P    1    1.000000
   4.04100000E-02    1.00000000E+00 
D    1    1.000000
   5.50000000E-01    1.00000000E+00 
D    1    1.000000
   1.51000000E-01    1.00000000E+00 

12    0
S    8    1.000000
   6.66500000E+03    6.92000000E-04 
   1.00000000E+03    5.32900000E-03 
   2.28000000E+02    2.70770000E-02 
   6.47100000E+01    1.01718000E-01 
   2.10600000E+01    2.74740000E-01 
   7.49500000E+00    4.48564000E-01 
   2.79700000E+00    2.85074000E-01 
   5.21500000E-01    1.52040000E-02 
S    8    1.000000
   6.66500000E+03   -1.46000000E-04 
   1.00000000E+03   -1.15400000E-03 
   2.28000000E+02   -5.72500000E-03 
   6.47100000E+01   -2.33120000E-02 
   2.10600000E+01   -6.39550000E-02 
   7.49500000E+00   -1.49981000E-01 
   2.79700000E+00   -1.27262000E-01 
   5.21500000E-01    5.44529000E-01 
S    1    1.000000
   1.59600000E-01    1.00000000E+00 
S    1    1.000000
   4.69000000E-02    1.00000000E+00 
P    3    1.000000
   9.43900000E+00    3.81090000E-02 
   2.00200000E+00    2.09480000E-01 
   5.45600000E-01    5.08557000E-01 
P    1    1.000000
   1.51700000E-01    1.00000000E+00 
P    1    1.000000
   4.04100000E-02    1.00000000E+00 
D    1    1.000000
   5.50000000E-01    1.00000000E+00 
D    1    1.000000
   1.51000000E-01    1.00000000E+00 

13    0
S    8    1.000000
   6.66500000E+03    6.92000000E-04 
   1.00000000E+03    5.32900000E-03 
   2.28000000E+02    2.70770000E-02 
   6.47100000E+01    1.01718000E-01 
   2.10600000E+01    2.74740000E-01 
   7.49500000E+00    4.48564000E-01 
   2.79700000E+00    2.85074000E-01 
   5.21500000E-01    1.52040000E-02 
S    8    1.000000
   6.66500000E+03   -1.46000000E-04 
   1.00000000E+03   -1.15400000E-03 
   2.28000000E+02   -5.72500000E-03 
   6.47100000E+01   -2.33120000E-02 
   2.10600000E+01   -6.39550000E-02 
   7.49500000E+00   -1.49981000E-01 
   2.79700000E+00   -1.27262000E-01 
   5.21500000E-01    5.44529000E-01 
S    1    1.000000
   1.59600000E-01    1.00000000E+00 
S    1    1.000000
   4.69000000E-02    1.00000000E+00 
P    3    1.000000
   9.43900000E+00    3.81090000E-02 
   2.00200000E+00    2.09480000E-01 
   5.45600000E-01    5.08557000E-01 
P    1    1.000000
   1.51700000E-01    1.00000000E+00 
P    1    1.000000
   4.04100000E-02    1.00000000E+00 
D    1    1.000000
   5.50000000E-01    1.00000000E+00 
D    1    1.000000
   1.51000000E-01    1.00000000E+00 

14    0
S    8    1.000000
   6.66500000E+03    6.92000000E-04 
   1.00000000E+03    5.32900000E-03 
   2.28000000E+02    2.70770000E-02 
   6.47100000E+01    1.01718000E-01 
   2.10600000E+01    2.74740000E-01 
   7.49500000E+00    4.48564000E-01 
   2.79700000E+00    2.85074000E-01 
   5.21500000E-01    1.52040000E-02 
S    8    1.000000
   6.66500000E+03   -1.46000000E-04 
   1.00000000E+03   -1.15400000E-03 
   2.28000000E+02   -5.72500000E-03 
   6.47100000E+01   -2.33120000E-02 
   2.10600000E+01   -6.39550000E-02 
   7.49500000E+00   -1.49981000E-01 
   2.79700000E+00   -1.27262000E-01 
   5.21500000E-01    5.44529000E-01 
S    1    1.000000
   1.59600000E-01    1.00000000E+00 
S    1    1.000000
   4.69000000E-02    1.00000000E+00 
P    3    1.000000
   9.43900000E+00    3.81090000E-02 
   2.00200000E+00    2.09480000E-01 
   5.45600000E-01    5.08557000E-01 
P    1    1.000000
   1.51700000E-01    1.00000000E+00 
P    1    1.000000
   4.04100000E-02    1.00000000E+00 
D    1    1.000000
   5.50000000E-01    1.00000000E+00 
D    1    1.000000
   1.51000000E-01    1.00000000E+00 

15    0
S    3    1.000000
   1.30100000E+01    1.96850000E-02 
   1.96200000E+00    1.37977000E-01 
   4.44600000E-01    4.78148000E-01 
S    1    1.000000
   1.22000000E-01    1.00000000E+00 
S    1    1.000000
   2.97400000E-02    1.00000000E+00 
P    1    1.000000
   7.27000000E-01    1.00000000E+00 
P    1    1.000000
   1.41000000E-01    1.00000000E+00 

16    0
S    3    1.000000
   1.30100000E+01    1.96850000E-02 
   1.96200000E+00    1.37977000E-01 
   4.44600000E-01    4.78148000E-01 
S    1    1.000000
   1.22000000E-01    1.00000000E+00 
S    1    1.000000
   2.97400000E-02    1.00000000E+00 
P    1    1.000000
   7.27000000E-01    1.00000000E+00 
P    1    1.000000
   1.41000000E-01    1.00000000E+00 

17    0
S    3    1.000000
   1.30100000E+01    1.96850000E-02 
   1.96200000E+00    1.37977000E-01 
   4.44600000E-01    4.78148000E-01 
S    1    1.000000
   1.22000000E-01    1.00000000E+00 
S    1    1.000000
   2.97400000E-02    1.00000000E+00 
P    1    1.000000
   7.27000000E-01    1.00000000E+00 
P    1    1.000000
   1.41000000E-01    1.00000000E+00 

18    0
S    3    1.000000
   1.30100000E+01    1.96850000E-02 
   1.96200000E+00    1.37977000E-01 
   4.44600000E-01    4.78148000E-01 
S    1    1.000000
   1.22000000E-01    1.00000000E+00 
S    1    1.000000
   2.97400000E-02    1.00000000E+00 
P    1    1.000000
   7.27000000E-01    1.00000000E+00 
P    1    1.000000
   1.41000000E-01    1.00000000E+00 

19    0
S    3    1.000000
   1.30100000E+01    1.96850000E-02 
   1.96200000E+00    1.37977000E-01 
   4.44600000E-01    4.78148000E-01 
S    1    1.000000
   1.22000000E-01    1.00000000E+00 
S    1    1.000000
   2.97400000E-02    1.00000000E+00 
P    1    1.000000
   7.27000000E-01    1.00000000E+00 
P    1    1.000000
   1.41000000E-01    1.00000000E+00 

20    0
S    3    1.000000
   1.30100000E+01    1.96850000E-02 
   1.96200000E+00    1.37977000E-01 
   4.44600000E-01    4.78148000E-01 
S    1    1.000000
   1.22000000E-01    1.00000000E+00 
S    1    1.000000
   2.97400000E-02    1.00000000E+00 
P    1    1.000000
   7.27000000E-01    1.00000000E+00 
P    1    1.000000
   1.41000000E-01    1.00000000E+00 

21    0
S    3    1.000000
   1.30100000E+01    1.96850000E-02 
   1.96200000E+00    1.37977000E-01 
   4.44600000E-01    4.78148000E-01 
S    1    1.000000
   1.22000000E-01    1.00000000E+00 
S    1    1.000000
   2.97400000E-02    1.00000000E+00 
P    1    1.000000
   7.27000000E-01    1.00000000E+00 
P    1    1.000000
   1.41000000E-01    1.00000000E+00 

22    0
S    3    1.000000
   1.30100000E+01    1.96850000E-02 
   1.96200000E+00    1.37977000E-01 
   4.44600000E-01    4.78148000E-01 
S    1    1.000000
   1.22000000E-01    1.00000000E+00 
S    1    1.000000
   2.97400000E-02    1.00000000E+00 
P    1    1.000000
   7.27000000E-01    1.00000000E+00 
P    1    1.000000
   1.41000000E-01    1.00000000E+00 

23    0
S    3    1.000000
   1.30100000E+01    1.96850000E-02 
   1.96200000E+00    1.37977000E-01 
   4.44600000E-01    4.78148000E-01 
S    1    1.000000
   1.22000000E-01    1.00000000E+00 
S    1    1.000000
   2.97400000E-02    1.00000000E+00 
P    1    1.000000
   7.27000000E-01    1.00000000E+00 
P    1    1.000000
   1.41000000E-01    1.00000000E+00 

24    0
S    8    1.000000
   1.17200000E+04    7.10000000E-04 
   1.75900000E+03    5.47000000E-03 
   4.00800000E+02    2.78370000E-02 
   1.13700000E+02    1.04800000E-01 
   3.70300000E+01    2.83062000E-01 
   1.32700000E+01    4.48719000E-01 
   5.02500000E+00    2.70952000E-01 
   1.01300000E+00    1.54580000E-02 
S    8    1.000000
   1.17200000E+04   -1.60000000E-04 
   1.75900000E+03   -1.26300000E-03 
   4.00800000E+02   -6.26700000E-03 
   1.13700000E+02   -2.57160000E-02 
   3.70300000E+01   -7.09240000E-02 
   1.32700000E+01   -1.65411000E-01 
   5.02500000E+00   -1.16955000E-01 
   1.01300000E+00    5.57368000E-01 
S    1    1.000000
   3.02300000E-01    1.00000000E+00 
S    1    1.000000
   7.89600000E-02    1.00000000E+00 
P    3    1.000000
   1.77000000E+01    4.30180000E-02 
   3.85400000E+00    2.28913000E-01 
   1.04600000E+00    5.08728000E-01 
P    1    1.000000
   2.75300000E-01    1.00000000E+00 
P    1    1.000000
   6.85600000E-02    1.00000000E+00 
D    1    1.000000
   1.18500000E+00    1.00000000E+00 
D    1    1.000000
   3.32000000E-01    1.00000000E+00 

25    0
S    15    1.000000
   6.34294000E+05    5.25596000E-05 
   8.13143400E+04    4.98068000E-04 
   1.67647900E+04    2.91602000E-03 
   4.42973000E+03    1.30856000E-02 
   1.37198800E+03    4.81108000E-02 
   4.75488100E+02    1.42721000E-01 
   1.79307600E+02    3.14824000E-01 
   7.24040900E+01    4.06967000E-01 
   3.06589900E+01    2.07434000E-01 
   9.83698700E+00    1.66181000E-02 
   3.99945900E+00   -2.56523000E-03 
   1.02701000E+00    8.39702000E-04 
   4.26654600E-01   -4.47647000E-04 
   6.36336500E-02    1.20064000E-04 
   2.62631700E-02   -6.04079000E-05 
S    15    1.000000
   6.34294000E+05   -1.52182000E-05 
   8.13143400E+04   -1.45233000E-04 
   1.67647900E+04   -8.43929000E-04 
   4.42973000E+03   -3.86276000E-03 
   1.37198800E+03   -1.42692000E-02 
   4.75488100E+02   -4.57714000E-02 
   1.79307600E+02   -1.12259000E-01 
   7.24040900E+01   -2.09337000E-01 
   3.06589900E+01   -1.18169000E-01 
   9.83698700E+00    4.98551000E-01 
   3.99945900E+00    6.14790000E-01 
   1.02701000E+00    5.89238000E-02 
   4.26654600E-01   -1.34539000E-02 
   6.36336500E-02    3.29146000E-03 
   2.62631700E-02   -1.62419000E-03 
S    15    1.000000
   6.34294000E+05    5.25601000E-06 
   8.13143400E+04    4.99945000E-05 
   1.67647900E+04    2.91984000E-04 
   4.42973000E+03    1.32884000E-03 
   1.37198800E+03    4.96095000E-03 
   4.75488100E+02    1.58367000E-02 
   1.79307600E+02    4.00138000E-02 
   7.24040900E+01    7.55025000E-02 
   3.06589900E+01    4.88318000E-02 
   9.83698700E+00   -2.53013000E-01 
   3.99945900E+00   -4.80449000E-01 
   1.02701000E+00    5.65877000E-01 
   4.26654600E-01    6.58327000E-01 
   6.36336500E-02    2.59175000E-02 
   2.62631700E-02   -9.51307000E-03 
S    15    1.000000
   6.34294000E+05   -1.25738000E-06 
   8.13143400E+04   -1.19254000E-05 
   1.67647900E+04   -6.99428000E-05 
   4.42973000E+03   -3.16569000E-04 
   1.37198800E+03   -1.19073000E-03 
   4.75488100E+02   -3.76860000E-03 
   1.79307600E+02   -9.66122000E-03 
   7.24040900E+01   -1.79561000E-02 
   3.06589900E+01   -1.23463000E-02 
   9.83698700E+00    6.48503000E-02 
   3.99945900E+00    1.24213000E-01 
   1.02701000E+00   -1.73178000E-01 
   4.26654600E-01   -3.79988000E-01 
   6.36336500E-02    6.57570000E-01 
   2.62631700E-02    4.93284000E-01 
S    1    1.000000
   2.62631700E-02    1.00000000E+00 
S    1    1.000000
   1.08400000E-02    1.00000000E+00 
P    11    1.000000
   1.23652800E+03    1.61050000E-03 
   2.77429200E+02    1.43720000E-02 
   8.65134700E+01    7.15876000E-02 
   3.16262200E+01    2.25429000E-01 
   1.25001500E+01    4.25126000E-01 
   5.13409400E+00    3.81133000E-01 
   2.00896800E+00    8.27503000E-02 
   8.38153900E-01   -3.63253000E-03 
   3.37704100E-01    1.84741000E-03 
   8.07092900E-02   -5.24557000E-04 
   2.90333400E-02    2.02329000E-04 
P    11    1.000000
   1.23652800E+03   -5.26787000E-04 
   2.77429200E+02   -4.70480000E-03 
   8.65134700E+01   -2.40594000E-02 
   3.16262200E+01   -7.80806000E-02 
   1.25001500E+01   -1.57752000E-01 
   5.13409400E+00   -1.34782000E-01 
   2.00896800E+00    2.24136000E-01 
   8.38153900E-01    5.57516000E-01 
   3.37704100E-01    3.56789000E-01 
   8.07092900E-02    2.69438000E-02 
   2.90333400E-02   -4.96010000E-03 
P    11    1.000000
   1.23652800E+03    1.10310000E-04 
   2.77429200E+02    9.78122000E-04 
   8.65134700E+01    5.05273000E-03 
   3.16262200E+01    1.62816000E-02 
   1.25001500E+01    3.36093000E-02 
   5.13409400E+00    2.72352000E-02 
   2.00896800E+00   -5.25284000E-02 
   8.38153900E-01   -1.46018000E-01 
   3.37704100E-01   -1.07776000E-01 
   8.07092900E-02    5.04039000E-01 
   2.90333400E-02    6.07438000E-01 
P    1    1.000000
   2.90333400E-02    1.00000000E+00 
P    1    1.000000
   1.04400000E-02    1.00000000E+00 
D    5    1.000000
   9.70927900E+00    3.52030000E-02 
   2.42484600E+00    1.55891000E-01 
   7.01808100E-01    3.18767000E-01 
   1.87739100E-01    4.62295000E-01 
   4.81882700E-02    4.61675000E-01 
D    1    1.000000
   4.81882700E-02    1.00000000E+00 
D    1    1.000000
   1.92800000E-02    1.00000000E+00 

[MO]
Sym=X
Ene= -0.393489
Spin=Alpha
Occup=1
     1   -7.260993532286e-11
     2   -6.910031831850e-11
     3    2.764937601808e-08
     4   -5.822438718047e-08
     5    7.783616013347e-11
     6   -4.492185658746e-10
     7   -1.099646672802e-02
     8   -9.791330104322e-08
     9    3.441073621403e-08
    10   -1.383192181579e-02
    11    4.929304098745e-08
    12   -1.685599621127e-08
    13   -5.303551359525e-04
    14   -8.490182175759e-11
    15   -5.154685864925e-03
    16    2.117161788806e-03
    17    2.075043302224e-10
    18    5.456432771269e-11
    19    1.720843388876e-09
    20   -1.204961986539e-03
    21    1.595169649504e-04
    22    1.666011554220e-08
    23    2.315762554019e-08
    24   -2.812037028943e-10
    25   -3.691486453866e-10
    26    2.189513478835e-08
    27    1.102244239700e-07
    28   -7.707775134836e-11
    29    7.938609315481e-11
    30    5.453472395016e-02
    31   -8.984343166475e-08
    32   -8.112652673627e-08
    33    4.156823982250e-02
    34    8.799665323780e-08
    35    2.999991154219e-09
    36    6.878477093365e-03
    37   -1.256316969890e-10
    38   -8.598324722410e-04
    39   -2.199261164740e-03
    40   -2.392911655783e-10
    41    1.448604752619e-10
    42   -8.402728327191e-10
    43    5.975592259981e-03
    44   -1.823345431538e-03
    45   -4.378159880680e-08
    46    1.673591786327e-08
    47    2.442364575611e-11
    48   -8.705217713861e-11
    49   -8.837781887371e-09
    50    2.048020964194e-08
    51    2.321411475710e-10
    52    2.360454768629e-11
    53   -5.600230885452e-02
    54   -1.296248163221e-09
    55    9.558387821638e-08
    56   -4.447158917761e-02
    57    1.210227326593e-09
    58   -5.092207040888e-08
    59   -1.437799856682e-02
    60   -1.386064519982e-10
    61    4.089912002727e-04
    62   -1.278085696193e-04
    63    9.982767120666e-11
    64   -2.435642653274e-10
    65   -4.284827644798e-10
    66   -1.913213551297e-03
    67   -1.737576656570e-04
    68   -2.276778236753e-09
    69   -2.906274145130e-08
    70    8.993421485762e-11
    71    2.568298471163e-10
    72   -2.116189159354e-08
    73    2.159370707324e-08
    74   -4.269471420289e-11
    75    1.779395638383e-10
    76   -8.609729537196e-03
    77    8.697973933694e-08
    78    5.613213325940e-08
    79   -1.389176308137e-02
    80   -5.113411914500e-08
    81   -3.667181181045e-08
    82   -4.994689906513e-03
    83    8.889564994576e-11
    84   -4.988191450870e-03
    85   -3.126576917305e-03
    86   -1.354893507869e-10
    87    1.014744387189e-10
    88   -5.741257142710e-10
    89    6.698198777994e-04
    90   -1.717431827555e-03
    91   -3.695735327088e-08
    92    8.435503877265e-09
    93    5.407329243121e-11
    94    5.259096184996e-11
    95   -2.146385980574e-08
    96    6.976935149391e-08
    97   -2.218511078412e-10
    98    2.415872017904e-10
    99    5.942040402465e-02
   100    1.192987755439e-07
   101   -6.085975736189e-08
   102    5.683493194446e-02
   103   -6.754041658573e-08
   104    4.424171424696e-08
   105    1.616587365418e-02
   106    4.315170463246e-11
   107   -1.486337181970e-03
   108    2.144086454436e-03
   109    1.624430165211e-11
   110    1.657576344966e-10
   111   -7.179759296779e-10
   112    3.061326395958e-03
   113    5.958964326190e-03
   114    2.707254439391e-08
   115    2.942153004816e-08
   116   -1.334772502592e-10
   117   -3.537574481338e-10
   118   -2.158814735870e-08
   119   -2.067655656885e-07
   120    4.709387851414e-10
   121    4.319443465549e-11
   122    3.583997954288e-02
   123    2.415176522233e-08
   124   -1.441495578905e-07
   125    3.327905084667e-02
   126   -7.807473501427e-08
   127    4.385974933489e-08
   128    1.037874977008e-02
   129    4.054063522980e-10
   130    1.215391321757e-02
   131    1.188811732695e-03
   132   -2.300204653067e-10
   133   -1.473394691534e-10
   134   -1.502860116333e-09
   135   -5.376590247404e-03
   136    5.370474347275e-03
   137   -3.021698096400e-09
   138   -4.307062663072e-08
   139    3.404321703011e-10
   140    6.316150957243e-10
   141   -3.685749719119e-09
   142    2.759704688462e-07
   143   -3.778684992609e-10
   144    2.453907120112e-11
   145   -1.582183856940e-01
   146    2.147006708640e-08
   147    2.682903821735e-09
   148   -1.336255911252e-01
   149    4.983406724339e-08
   150    1.095644694580e-07