                  Welcome to Q-Chem
     A Quantum Leap Into The Future Of Chemistry


 Q-Chem 6.0 (devel), Q-Chem, Inc., Pleasanton, CA (2022)

 E. Epifanovsky,  A. T. B. Gilbert,  Xintian Feng,  Joonho Lee,  Yuezhi Mao,  
 N. Mardirossian,  P. Pokhilko,  A. White,  M. Wormit,  M. P. Coons,  
 A. L. Dempwolff,  Zhengting Gan,  D. Hait,  P. R. Horn,  L. D. Jacobson,  
 I. Kaliman,  J. Kussmann,  A. W. Lange,  Ka Un Lao,  D. S. Levine,  Jie Liu,  
 S. C. McKenzie,  A. F. Morrison,  K. Nanda,  F. Plasser,  D. R. Rehn,  
 M. L. Vidal,  Zhi-Qiang You,  Ying Zhu,  B. Alam,  B. Albrecht,  
 A. Aldossary,  E. Alguire,  J. H. Andersen,  V. Athavale,  D. Barton,  
 K. Begam,  A. Behn,  N. Bellonzi,  Y. A. Bernard,  E. J. Berquist,  
 H. Burton,  A. Carreras,  K. Carter-Fenk,  Romit Chakraborty,  
 Chandrima Chakravarty,  Junhan Chen,  A. D. Chien,  K. D. Closser,  
 V. Cofer-Shabica,  L. Cunha,  S. Dasgupta,  Jia Deng,  M. de Wergifosse,  
 M. Diedenhofen,  Hainam Do,  S. Ehlert,  Po-Tung Fang,  S. Fatehi,  
 Qingguo Feng,  T. Friedhoff,  B. Ganoe,  J. Gayvert,  Qinghui Ge,  
 G. Gidofalvi,  M. Goldey,  J. Gomes,  C. Gonzalez-Espinoza,  S. Gulania,  
 A. Gunina,  J. A. Gyamfi,  M. W. D. Hanson-Heine,  P. H. P. Harbach,  
 A. W. Hauser,  M. F. Herbst,  M. Hernandez Vera,  M. Hodecker,  
 Z. C. Holden,  S. Houck,  Xunkun Huang,  Kerwin Hui,  B. C. Huynh,  
 K. Ikeda,  M. Ivanov,  Hyunjun Ji,  Zuxin Jin,  Hanjie Jiang,  B. Kaduk,  
 S. Kaehler,  R. Kang,  K. Khistyaev,  Jaehoon Kim,  Yongbin Kim,  
 P. Klunzinger,  Z. Koczor-Benda,  Joong Hoon Koh,  D. Kosenkov,  
 Saikiran Kotaru,  L. Koulias,  T. Kowalczyk,  C. M. Krauter,  K. Kue,  
 A. Kunitsa,  T. Kus,  A. Landau,  K. V. Lawler,  D. Lefrancois,  S. Lehtola,  
 Rain Li,  Shaozhi Li,  Yi-Pei Li,  Jiashu Liang,  M. Liebenthal,  
 Hung-Hsuan Lin,  You-Sheng Lin,  Fenglai Liu,  Kuan-Yu Liu,  
 M. Loipersberger,  A. Luenser,  C. Malbon,  A. Manjanath,  P. Manohar,  
 E. Mansoor,  S. F. Manzer,  Shan-Ping Mao,  A. V. Marenich,  T. Markovich,  
 S. Mason,  F. Matz,  S. A. Maurer,  P. F. McLaughlin,  M. F. S. J. Menger,  
 J.-M. Mewes,  S. A. Mewes,  P. Morgante,  Mohammad Mostafanejad,  
 J. W. Mullinax,  K. J. Oosterbaan,  G. Paran,  V. Parravicini,  
 Alexander C. Paul,  Suranjan K. Paul,  F. Pavosevic,  Zheng Pei,  S. Prager,  
 E. I. Proynov,  E. Ramos,  B. Rana,  A. E. Rask,  A. Rettig,  R. M. Richard,  
 F. Rob,  E. Rossomme,  T. Scheele,  M. Scheurer,  M. Schneider,  
 P. E. Schneider,  N. Sergueev,  S. M. Sharada,  Hengyuan Shen,  
 W. Skomorowski,  D. W. Small,  C. J. Stein,  Yingli Su,  Yu-Chuan Su,  
 E. J. Sundstrom,  Zhen Tao,  J. Thirman,  Hung-Yi Tsai,  T. Tsuchimochi,  
 N. M. Tubman,  C. Utku,  S. P. Veccham,  O. Vydrov,  J. Wenzel,  
 Jonathan Wong,  J. Witte,  A. Yamada,  Chou-Hsun Yang,  Kun Yao,  
 S. Yeganeh,  S. R. Yost,  A. Zech,  F. Zeller,  Igor Ying Zhang,  
 Xing Zhang,  Yu Zhang,  D. Zuev,  A. Aspuru-Guzik,  A. T. Bell,  
 N. A. Besley,  K. B. Bravaya,  B. R. Brooks,  D. Casanova,  Jeng-Da Chai,  
 Hsing-Ta Chen,  S. Coriani,  C. J. Cramer,  A. E. DePrince, III,  
 R. A. DiStasio Jr.,  A. Dreuw,  B. D. Dunietz,  T. R. Furlani,  
 W. A. Goddard III,  S. Grimme,  S. Hammes-Schiffer,  T. Head-Gordon,  
 W. J. Hehre,  Chao-Ping Hsu,  T.-C. Jagau,  Yousung Jung,  A. Klamt,  
 Jing Kong,  D. S. Lambrecht,  Xiangyuan Li,  WanZhen Liang,  N. J. Mayhall,  
 C. W. McCurdy,  J. B. Neaton,  T. Neudecker,  C. Ochsenfeld,  
 J. A. Parkhill,  R. Peverati,  V. A. Rassolov,  Haisheng Ren,  Yihan Shao,  
 L. V. Slipchenko,  R. P. Steele,  J. E. Subotnik,  A. J. W. Thom,  
 A. Tkatchenko,  D. G. Truhlar,  T. Van Voorhis,  Fan Wang,  
 T. A. Wesolowski,  K. B. Whaley,  H. L. Woodcock III,  P. M. Zimmerman,  
 S. Faraji,  P. M. W. Gill,  M. Head-Gordon,  J. M. Herbert,  A. I. Krylov

 Contributors to earlier versions of Q-Chem not listed above: 
 R. D. Adamson,  B. Austin,  R. Baer,  J. Baker,  G. J. O. Beran,  
 K. Brandhorst,  S. T. Brown,  E. F. C. Byrd,  Arup K. Chakraborty,  
 G. K. L. Chan,  Chun-Min Chang,  Yunqing Chen,  C.-L. Cheng,  
 Siu Hung Chien,  D. M. Chipman,  D. L. Crittenden,  H. Dachsel,  
 R. J. Doerksen,  A. D. Dutoi,  R. G. Edgar,  J. Fosso-Tande,  
 L. Fusti-Molnar,  D. Ghosh,  A. Ghysels,  A. Golubeva-Zadorozhnaya,  
 J. Gonthier,  M. S. Gordon,  S. R. Gwaltney,  G. Hawkins,  J. E. Herr,  
 A. Heyden,  S. Hirata,  E. G. Hohenstein,  G. Kedziora,  F. J. Keil,  
 C. Kelley,  Jihan Kim,  R. A. King,  R. Z. Khaliullin,  P. P. Korambath,  
 W. Kurlancheek,  A. Laurent,  A. M. Lee,  M. S. Lee,  S. V. Levchenko,  
 Ching Yeh Lin,  D. Liotard,  E. Livshits,  R. C. Lochan,  I. Lotan,  
 L. A. Martinez-Martinez,  P. E. Maslen,  N. Nair,  D. P. O'Neill,  
 D. Neuhauser,  E. Neuscamman,  C. M. Oana,  R. Olivares-Amaya,  R. Olson,  
 T. M. Perrine,  B. Peters,  P. A. Pieniazek,  A. Prociuk,  Y. M. Rhee,  
 J. Ritchie,  M. A. Rohrdanz,  E. Rosta,  N. J. Russ,  H. F. Schaefer III,  
 M. W. Schmidt,  N. E. Schultz,  S. Sharma,  N. Shenvi,  C. D. Sherrill,  
 A. C. Simmonett,  A. Sodt,  T. Stein,  D. Stuck,  K. S. Thanthiriwatte,  
 V. Vanovschi,  L. Vogt,  Tao Wang,  A. Warshel,  M. A. Watson,  
 C. F. Williams,  Q. Wu,  X. Xu,  Jun Yang,  W. Zhang,  Yan Zhao

   Please cite Q-Chem as follows:
  "Software for the frontiers of quantum chemistry:
   An overview of developments in the Q-Chem 5 package"
   J. Chem. Phys. 155, 084801 (2021)
   https://doi.org/10.1063/5.0055522 (open access)

 Q-Chem 6.0.2 for Intel X86 EM64T Linux

 Parts of Q-Chem use Armadillo 9.900.5 (Nocturnal Misbehaviour).
 http://arma.sourceforge.net/

 Q-Chem begins on Sun Jan 15 07:56:17 2023  

orc29
 Host: 0

     Scratch files written to /scratch/wojcik/qchem11263//
 Processing $rem in /qcsoftware/qchem_latest/config/preferences:
 Processing $rem in /home/users/wojcik/.qchemrc:
 Core orbitals will be frozen

 Checking the input file for inconsistencies... 	...done.

--------------------------------------------------------------
User input:
--------------------------------------------------------------
$comment
Trans isomer (planar structure)

EOM-EA-CCSD/cc-pVDZ opt for the 1A' state starting from a charge +1 singlet

doublet reference for an EOM-EE job
$end

$molecule
0 2
  C       5.3832949554     1.1268023932    -0.0000000000
  C       3.9857848754     1.0242652883    -0.0000000000
  C       6.1864366870    -0.0311896649     0.0000000000
  C       5.5825967915    -1.2986615016     0.0000000000
  C       4.1810701040    -1.4061755307     0.0000000000
  C       3.3823631861    -0.2507216815    -0.0000000000
  N       1.9614847270    -0.4835236846    -0.0000000000
  N       1.2812134824     0.5744215944    -0.0000000000
  C      -0.1339985068     0.3649235430    -0.0000000000
  C      -0.9257923961     1.5257693382    -0.0000000000
  C      -2.3247269471     1.4417831343     0.0000000001
  C      -2.9688065782     0.1818510535     0.0000000000
  C      -2.1571876382    -0.9857954463    -0.0000000000
  C      -0.7640421169    -0.8992048201    -0.0000000001
  H       5.8537616426     2.1167460216    -0.0000000000
  H       3.3494475397     1.9129885234    -0.0000000001
  H       7.2785746364     0.0584934720     0.0000000000
  H       6.2000128737    -2.2038310242     0.0000000001
  H       3.6827083791    -2.3812968442     0.0000000001
  H      -0.4209780821     2.4983115557     0.0000000000
  H      -2.9389457145     2.3492456808     0.0000000001
  H      -2.6524563713    -1.9638216298    -0.0000000000
  H      -0.1447973927    -1.8007567674    -0.0000000001
  O      -4.3059650637     0.0857744134     0.0000000000
  Ca     -6.4134084937    -0.0683092669     0.0000000000
$end

$rem
! method
  method = eom-ccsd
  ee_states = [9, 6]

! basis
  basis = aug-cc-pVDZ

! memory
  !mem_total = 12800              ! Batch (qchempbs_mp4)
  !cc_memory = 10240
  !mem_total = 102400             ! Big (qchempbs_mp12)
  !cc_memory = 81920 
  mem_total = 307200              ! Giant (qchempbs_mp16)
  cc_memory = 245760 
  !mem_total = 201840             ! Huge (qchempbs_mp20)
  !cc_memory = 161472 

! Properties
  cc_eom_prop = true              ! \mu, \expval{x^2} and alike
  cc_eom_prop_te = true           ! <S^2>

! NTOs
  state_analysis = true           ! needs to be activated for NTOs to start
  cc_trans_prop = 1               ! 1: ccsd ref/cc_state_to_opt -> eom; 2: eom <--> eom
  !cc_state_to_opt = [1, 1]       ! if only transition from one state [irrep #, state in the irrep]
  nto_pairs = 2                   ! # of pairs per excited state (in .out)
  !gui = 2                        ! The NTOs are generated for iqmol but they seem to be a mess
  molden_format = true            ! Use with the 'save' option while running Q-Chem
  wfa_orb_thresh = 1              ! N = 3; Export all NTO/NO/NDO pairs with a weight above 10^-N
$end
--------------------------------------------------------------
 ----------------------------------------------------------------
             Standard Nuclear Orientation (Angstroms)
    I     Atom           X                Y                Z
 ----------------------------------------------------------------
    1      C       5.3870861020     1.1910111415    -0.0000000000
    2      C       3.9918906954     1.0607112606    -0.0000000000
    3      C       6.2130904351     0.0492147107     0.0000000000
    4      C       5.6345677094    -1.2300112006     0.0000000000
    5      C       4.2354554323    -1.3653668738     0.0000000000
    6      C       3.4139354970    -0.2260199844     0.0000000000
    7      N       1.9979660462    -0.4870235911     0.0000000000
    8      N       1.2967968854     0.5571885461    -0.0000000000
    9      C      -0.1139705070     0.3195969371    -0.0000000000
   10      C      -0.9286859739     1.4644721405    -0.0000000000
   11      C      -2.3256743690     1.3526911752     0.0000000001
   12      C      -2.9445787708     0.0802035482    -0.0000000000
   13      C      -2.1099069707    -1.0710768860     0.0000000000
   14      C      -0.7187582380    -0.9568071014    -0.0000000001
   15      H       5.8377793466     2.1901121827    -0.0000000000
   16      H       3.3380109602     1.9366082211    -0.0000000001
   17      H       7.3032296050     0.1605922479    -0.0000000000
   18      H       6.2698568891    -2.1227273600     0.0000000001
   19      H       3.7565779896    -2.3502030935     0.0000000001
   20      H      -0.4433059439     2.4468580539    -0.0000000000
   21      H      -2.9578124520     2.2477634693     0.0000000001
   22      H      -2.5856342829    -2.0587559118     0.0000000000
   23      H      -0.0817126965    -1.8458700464    -0.0000000001
   24      O      -4.2795629470    -0.0424373316    -0.0000000000
   25      Ca     -6.3835266305    -0.2383873501    -0.0000000000
 ----------------------------------------------------------------
 Molecular Point Group                 Cs    NOp =  2
 Largest Abelian Subgroup              Cs    NOp =  2
 Nuclear Repulsion Energy =        1011.18396213 hartrees
 There are       62 alpha and       61 beta electrons
 Requested basis set is aug-cc-pVDZ
 There are 194 shells and 462 basis functions
 Total memory of 307200 MB is distributed as follows: 
   MEM_STATIC is set to 192 MB
   QALLOC/CCMAN JOB total memory use is  307008 MB
 Warning: actual memory use might exceed 307200 MB

 Total QAlloc Memory Limit 307200 MB
 Mega-Array Size       188 MB
 MEM_STATIC part       192 MB

 A cutoff of  1.0D-14 yielded  17221 shell pairs
 There are     97487 function pairs (    111824 Cartesian)
 Smallest overlap matrix eigenvalue = 1.44E-06

 Scale SEOQF with 1.000000e-02/1.000000e-01/1.000000e-01

 Standard Electronic Orientation quadrupole field applied
 Nucleus-field energy     =     0.0000000159 hartrees
 Guess from superposition of atomic densities
 Warning:  Energy on first SCF cycle will be non-variational
 SAD guess density has 123.000000 electrons

 -----------------------------------------------------------------------
  General SCF calculation program by
  Eric Jon Sundstrom, Paul Horn, Yuezhi Mao, Dmitri Zuev, Alec White,
  David Stuck, Shaama M.S., Shane Yost, Joonho Lee, David Small,
  Daniel Levine, Susi Lehtola, Hugh Burton, Evgeny Epifanovsky,
  Bang C. Huynh
 -----------------------------------------------------------------------
 Hartree-Fock
 using 16 threads for integral computing
 -------------------------------------------------------
 OpenMP Integral computing Module                
 Release: version 1.0, May 2013, Q-Chem Inc. Pittsburgh 
 -------------------------------------------------------
 A unrestricted SCF calculation will be
 performed using DIIS
 SCF converges when DIIS error is below 1.0e-08
 ---------------------------------------
  Cycle       Energy         DIIS error
 ---------------------------------------
    1   -1326.1000451247      1.49e-02  
    2   -1320.0297876397      1.29e-03  
    3   -1320.2115081242      7.37e-04  
    4   -1320.2599412325      2.25e-04  
    5   -1320.2673325643      4.62e-05  
    6   -1320.2678981933      2.09e-05  
    7   -1320.2681173002      9.69e-06  
    8   -1320.2682018854      5.14e-06  
    9   -1320.2682303977      2.68e-06  
   10   -1320.2682381977      1.30e-06  
   11   -1320.2682401082      6.43e-07  
   12   -1320.2682404526      3.98e-07  
   13   -1320.2682405593      3.90e-07  
   14   -1320.2682405760      3.95e-07  
   15   -1320.2682402677      2.81e-07  
   16   -1320.2682401144      1.73e-07  
   17   -1320.2682401095      1.40e-07  
   18   -1320.2682401248      1.31e-07  
   19   -1320.2682401353      1.32e-07  
   20   -1320.2682401245      1.29e-07  
   21   -1320.2682400372      1.05e-07  
   22   -1320.2682399780      8.71e-08  
   23   -1320.2682399671      8.15e-08  
   24   -1320.2682399688      7.88e-08  
   25   -1320.2682399763      7.66e-08  
   26   -1320.2682399936      7.27e-08  
   27   -1320.2682400373      6.13e-08  
   28   -1320.2682400922      4.12e-08  
   29   -1320.2682401199      2.04e-08  
   30   -1320.2682401225      1.03e-08  
   31   -1320.2682401229      6.14e-09  Convergence criterion met
 ---------------------------------------
 SCF time:   CPU 6036.36s  wall 433.00s 
<S^2> =          0.750333783
 SCF   energy in the final basis set =    -1320.2682401229
 Total energy in the final basis set =    -1320.2682401229


 ------------------------------------------------------------------------------

   CCMAN2: suite of methods based on coupled cluster
           and equation of motion theories.

   Components:
   * libvmm-1.3-trunk
     by Evgeny Epifanovsky, Ilya Kaliman.
   * libtensor-2.5-trunk
     by Evgeny Epifanovsky, Michael Wormit, Dmitry Zuev, Sam Manzer, 
        Ilya Kaliman.
   * libcc-2.5-trunk
     by Evgeny Epifanovsky, Arik Landau, Tomasz Kus, Kirill Khistyaev, 
        Dmitry Zuev, Prashant Manohar, Xintian Feng, Anna Krylov, 
        Matthew Goldey, Alec White, Thomas Jagau, Kaushik Nanda, 
        Anastasia Gunina, Alexander Kunitsa, Joonho Lee.

   CCMAN original authors:
   Anna I. Krylov, C. David Sherrill, Steven R. Gwaltney,
   Edward F. C. Byrd (2000)
   Sergey V. Levchenko, Lyudmila V. Slipchenko, Tao Wang,
   Ana-Maria C. Cristian (2003)
   Piotr A. Pieniazek, C. Melania Oana, Evgeny Epifanovsky (2007)
   Prashant Manohar (2009)

 ------------------------------------------------------------------------------


 Allocating and initializing 245760MB of RAM (this may take a while)...
 Calculation will run on 16 cores.


 Alpha MOs, Unrestricted
 -- Occupied --                  
-149.36  -20.52  -16.82  -15.62  -15.62  -13.63  -13.63  -13.63
  1 A'    2 A'    3 A'    4 A'    5 A'    1 A"    6 A'    7 A'                 
-11.295 -11.265 -11.246 -11.242 -11.241 -11.241 -11.240 -11.238
  8 A'    9 A'   10 A'   11 A'   12 A'   13 A'   14 A'   15 A'                 
-11.238 -11.237 -11.222 -11.220  -2.249  -1.369  -1.351  -1.349
 16 A'   17 A'   18 A'   19 A'   20 A'   21 A'   22 A'    2 A"                 
 -1.349  -1.293  -1.151  -1.123  -1.047  -1.008  -1.003  -0.979
 23 A'   24 A'   25 A'   26 A'   27 A'   28 A'   29 A'   30 A'                 
 -0.895  -0.826  -0.825  -0.797  -0.756  -0.698  -0.677  -0.655
 31 A'   32 A'   33 A'   34 A'   35 A'   36 A'   37 A'   38 A'                 
 -0.649  -0.619  -0.600  -0.588  -0.584  -0.574  -0.568  -0.560
 39 A'   40 A'   41 A'   42 A'   43 A'   44 A'   45 A'    3 A"                 
 -0.535  -0.529  -0.509  -0.491  -0.486  -0.486  -0.436  -0.427
  4 A"   46 A'   47 A'   48 A'    5 A"   49 A'    6 A"   50 A'                 
 -0.380  -0.331  -0.329  -0.327  -0.267  -0.224
 51 A'    7 A"    8 A"    9 A"   10 A"   52 A'                                 
 -- Virtual --                   
 -0.001  -0.000   0.017   0.021   0.035   0.039   0.040   0.045
 53 A'   11 A"   54 A'   55 A'   56 A'   12 A"   57 A'   58 A'                 
  0.046   0.046   0.047   0.053   0.056   0.057   0.064   0.066
 59 A'   13 A"   60 A'   61 A'   14 A"   62 A'   15 A"   63 A'                 
  0.068   0.077   0.084   0.089   0.102   0.107   0.108   0.110
 64 A'   65 A'   66 A'   67 A'   68 A'   69 A'   16 A"   70 A'                 
  0.113   0.122   0.123   0.124   0.127   0.135   0.136   0.137
 17 A"   18 A"   71 A'   19 A"   20 A"   21 A"   72 A'   73 A'                 
  0.143   0.145   0.147   0.149   0.151   0.154   0.159   0.161
 74 A'   75 A'   22 A"   76 A'   23 A"   77 A'   78 A'   79 A'                 
  0.162   0.164   0.166   0.168   0.172   0.179   0.180   0.186
 24 A"   25 A"   80 A'   81 A'   82 A'   83 A'   84 A'   85 A'                 
  0.186   0.191   0.193   0.196   0.199   0.200   0.201   0.203
 26 A"   86 A'   27 A"   87 A'   88 A'   28 A"   89 A'   29 A"                 
  0.217   0.219   0.222   0.222   0.233   0.238   0.243   0.244
 90 A'   30 A"   31 A"   91 A'   92 A'   93 A'   32 A"   94 A'                 
  0.249   0.251   0.253   0.254   0.267   0.270   0.272   0.273
 33 A"   95 A'   34 A"   96 A'   35 A"   36 A"   97 A'   98 A'                 
  0.277   0.283   0.291   0.293   0.305   0.312   0.312   0.319
 99 A'  100 A'  101 A'  102 A'  103 A'  104 A'   37 A"  105 A'                 
  0.324   0.331   0.337   0.339   0.339   0.346   0.347   0.358
106 A'  107 A'   38 A"  108 A'  109 A'  110 A'  111 A'  112 A'                 
  0.361   0.362   0.375   0.379   0.383   0.386   0.386   0.389
 39 A"  113 A'  114 A'  115 A'  116 A'   40 A"  117 A'  118 A'                 
  0.391   0.393   0.400   0.402   0.406   0.407   0.409   0.419
 41 A"  119 A'  120 A'  121 A'  122 A'   42 A"  123 A'  124 A'                 
  0.427   0.431   0.441   0.446   0.450   0.453   0.459   0.459
125 A'  126 A'   43 A"   44 A"  127 A'  128 A'  129 A'   45 A"                 
  0.467   0.470   0.474   0.485   0.488   0.494   0.502   0.515
130 A'  131 A'  132 A'  133 A'   46 A"  134 A'  135 A'   47 A"                 
  0.522   0.529   0.529   0.544   0.553   0.557   0.560   0.563
136 A'   48 A"  137 A'  138 A'  139 A'   49 A"  140 A'  141 A'                 
  0.563   0.566   0.580   0.584   0.592   0.595   0.604   0.609
 50 A"  142 A'   51 A"  143 A'  144 A'  145 A'  146 A'  147 A'                 
  0.614   0.615   0.618   0.627   0.630   0.640   0.647   0.658
 52 A"  148 A'   53 A"   54 A"  149 A'  150 A'  151 A'  152 A'                 
  0.666   0.675   0.684   0.689   0.691   0.694   0.699   0.701
153 A'  154 A'  155 A'  156 A'   55 A"  157 A'   56 A"  158 A'                 
  0.703   0.705   0.709   0.715   0.721   0.722   0.729   0.741
159 A'   57 A"  160 A'  161 A'   58 A"  162 A'  163 A'  164 A'                 
  0.751   0.761   0.765   0.771   0.775   0.780   0.781   0.782
165 A'   59 A"  166 A'   60 A"  167 A'  168 A'   61 A"  169 A'                 
  0.793   0.801   0.804   0.812   0.818   0.839   0.843   0.847
170 A'  171 A'   62 A"  172 A'  173 A'   63 A"  174 A'  175 A'                 
  0.852   0.860   0.876   0.881   0.885   0.888   0.897   0.899
176 A'  177 A'  178 A'  179 A'   64 A"  180 A'   65 A"   66 A"                 
  0.899   0.901   0.906   0.914   0.917   0.928   0.929   0.933
181 A'  182 A'  183 A'   67 A"   68 A"  184 A'   69 A"   70 A"                 
  0.941   0.946   0.954   0.956   0.962   0.972   0.975   0.982
185 A'   71 A"   72 A"  186 A'   73 A"  187 A'   74 A"   75 A"                 
  0.983   0.988   0.992   0.995   1.000   1.015   1.016   1.037
188 A'   76 A"  189 A'   77 A"  190 A'   78 A"  191 A'  192 A'                 
  1.046   1.053   1.056   1.068   1.073   1.076   1.077   1.086
193 A'   79 A"  194 A'  195 A'  196 A'   80 A"  197 A'   81 A"                 
  1.099   1.131   1.138   1.149   1.159   1.174   1.179   1.184
198 A'  199 A'  200 A'   82 A"  201 A'   83 A"  202 A'  203 A'                 
  1.186   1.204   1.210   1.228   1.248   1.260   1.288   1.303
 84 A"  204 A'  205 A'   85 A"   86 A"   87 A"  206 A'  207 A'                 
  1.311   1.318   1.351   1.367   1.378   1.381   1.446   1.457
 88 A"  208 A'  209 A'   89 A"  210 A'  211 A'  212 A'   90 A"                 
  1.460   1.486   1.489   1.495   1.501   1.514   1.519   1.526
213 A'   91 A"  214 A'  215 A'   92 A"   93 A"  216 A'   94 A"                 
  1.541   1.563   1.568   1.577   1.580   1.598   1.601   1.604
217 A'  218 A'  219 A'   95 A"  220 A'  221 A'   96 A"  222 A'                 
  1.605   1.613   1.635   1.639   1.648   1.667   1.679   1.684
223 A'  224 A'  225 A'  226 A'  227 A'  228 A'  229 A'  230 A'                 
  1.684   1.691   1.695   1.709   1.711   1.713   1.716   1.716
 97 A"  231 A'   98 A"  232 A'  233 A'   99 A"  100 A"  234 A'                 
  1.727   1.735   1.737   1.747   1.751   1.756   1.772   1.779
101 A"  235 A'  102 A"  103 A"  236 A'  237 A'  104 A"  105 A"                 
  1.790   1.818   1.823   1.824   1.831   1.833   1.854   1.869
238 A'  239 A'  240 A'  106 A"  241 A'  242 A'  243 A'  244 A'                 
  1.895   1.906   1.909   1.919   1.932   1.933   1.951   1.961
245 A'  107 A"  246 A'  108 A"  109 A"  247 A'  248 A'  249 A'                 
  1.966   1.976   1.990   1.991   1.995   1.999   2.006   2.007
110 A"  250 A'  251 A'  252 A'  253 A'  111 A"  254 A'  112 A"                 
  2.011   2.021   2.038   2.045   2.061   2.079   2.109   2.110
255 A'  113 A"  256 A'  257 A'  258 A'  259 A'  114 A"  260 A'                 
  2.128   2.132   2.136   2.140   2.178   2.191   2.194   2.205
115 A"  261 A'  262 A'  116 A"  263 A'  264 A'  117 A"  265 A'                 
  2.210   2.212   2.224   2.239   2.245   2.260   2.266   2.297
118 A"  266 A'  119 A"  267 A'  120 A"  268 A'  269 A'  270 A'                 
  2.308   2.314   2.315   2.327   2.356   2.358   2.371   2.373
271 A'  121 A"  272 A'  122 A"  273 A'  274 A'  123 A"  275 A'                 
  2.380   2.384   2.398   2.411   2.441   2.444   2.462   2.474
124 A"  276 A'  277 A'  278 A'  279 A'  280 A'  281 A'  125 A"                 
  2.497   2.504   2.585   2.596   2.607   2.620   2.629   2.637
282 A'  283 A'  284 A'  126 A"  127 A"  285 A'  128 A"  129 A"                 
  2.673   2.678   2.686   2.756   2.757   2.800   2.807   2.817
286 A'  287 A'  288 A'  130 A"  289 A'  290 A'  291 A'  292 A'                 
  2.824   2.845   2.858   2.900   2.913   2.943   2.967   2.984
293 A'  294 A'  295 A'  296 A'  131 A"  297 A'  298 A'  299 A'                 
  2.998   3.019   3.054   3.064   3.078   3.117   3.154   3.161
300 A'  301 A'  302 A'  303 A'  304 A'  305 A'  306 A'  307 A'                 
  3.185   3.201   3.254   3.299   3.312   3.316   3.420   3.458
132 A"  308 A'  309 A'  310 A'  311 A'  312 A'  313 A'  314 A'                 
  3.512   3.547   3.598   3.633   3.668   3.718   3.763   3.789
315 A'  316 A'  317 A'  318 A'  319 A'  320 A'  321 A'  133 A"                 
  3.844   3.882   3.923   4.029   4.126   4.418   4.802   4.836
134 A"  322 A'  323 A'  324 A'  325 A'  326 A'  327 A'  328 A'                 

 Beta MOs, Unrestricted
 -- Occupied --                  
-149.36  -20.52  -16.82  -15.63  -15.62  -13.63  -13.63  -13.63
  1 A'    2 A'    3 A'    4 A'    5 A'    6 A'    1 A"    7 A'                 
-11.295 -11.265 -11.246 -11.242 -11.241 -11.241 -11.240 -11.239
  8 A'    9 A'   10 A'   11 A'   12 A'   13 A'   14 A'   15 A'                 
-11.238 -11.237 -11.222 -11.220  -2.241  -1.364  -1.351  -1.346
 16 A'   17 A'   18 A'   19 A'   20 A'   21 A'   22 A'    2 A"                 
 -1.346  -1.292  -1.151  -1.123  -1.047  -1.008  -1.003  -0.979
 23 A'   24 A'   25 A'   26 A'   27 A'   28 A'   29 A'   30 A'                 
 -0.895  -0.826  -0.825  -0.797  -0.756  -0.698  -0.677  -0.654
 31 A'   32 A'   33 A'   34 A'   35 A'   36 A'   37 A'   38 A'                 
 -0.648  -0.619  -0.600  -0.588  -0.584  -0.574  -0.568  -0.560
 39 A'   40 A'   41 A'   42 A'   43 A'   44 A'   45 A'    3 A"                 
 -0.535  -0.528  -0.509  -0.491  -0.486  -0.486  -0.437  -0.427
  4 A"   46 A'   47 A'   48 A'    5 A"   49 A'    6 A"   50 A'                 
 -0.380  -0.332  -0.329  -0.327  -0.267
 51 A'    7 A"    8 A"    9 A"   10 A"                                         
 -- Virtual --                   
 -0.009   0.014   0.015   0.023   0.034   0.041   0.045   0.049
 52 A'   53 A'   11 A"   54 A'   55 A'   56 A'   57 A'   58 A'                 
  0.050   0.052   0.052   0.055   0.058   0.062   0.063   0.066
 12 A"   59 A'   60 A'   13 A"   61 A'   14 A"   62 A'   15 A"                 
  0.067   0.070   0.080   0.087   0.092   0.105   0.111   0.111
 63 A'   64 A'   65 A'   66 A'   67 A'   68 A'   16 A"   69 A'                 
  0.120   0.123   0.123   0.125   0.129   0.135   0.138   0.139
 17 A"   18 A"   70 A'   71 A'   19 A"   20 A"   21 A"   72 A'                 
  0.143   0.147   0.148   0.149   0.151   0.155   0.160   0.161
 73 A'   22 A"   74 A'   75 A'   76 A'   23 A"   77 A'   78 A'                 
  0.162   0.164   0.166   0.168   0.172   0.179   0.180   0.187
 24 A"   25 A"   79 A'   80 A'   81 A'   82 A'   83 A'   26 A"                 
  0.188   0.190   0.193   0.194   0.197   0.201   0.201   0.202
 84 A'   85 A'   27 A"   86 A'   87 A'   28 A"   88 A'   89 A'                 
  0.204   0.218   0.222   0.223   0.229   0.235   0.241   0.244
 29 A"   90 A'   30 A"   91 A'   31 A"   92 A'   93 A'   32 A"                 
  0.248   0.253   0.254   0.257   0.257   0.272   0.274   0.275
 94 A'   33 A"   95 A'   96 A'   34 A"   35 A"   97 A'   36 A"                 
  0.276   0.282   0.287   0.294   0.298   0.307   0.313   0.313
 98 A'   99 A'  100 A'  101 A'  102 A'  103 A'  104 A'   37 A"                 
  0.320   0.324   0.331   0.337   0.339   0.340   0.346   0.348
105 A'  106 A'  107 A'   38 A"  108 A'  109 A'  110 A'  111 A'                 
  0.359   0.362   0.362   0.375   0.379   0.384   0.386   0.386
112 A'   39 A"  113 A'  114 A'  115 A'  116 A'  117 A'   40 A"                 
  0.390   0.392   0.394   0.400   0.402   0.406   0.408   0.410
118 A'   41 A"  119 A'  120 A'  121 A'  122 A'   42 A"  123 A'                 
  0.420   0.428   0.431   0.441   0.446   0.451   0.453   0.459
124 A'  125 A'  126 A'   43 A"   44 A"  127 A'  128 A'  129 A'                 
  0.460   0.469   0.470   0.476   0.485   0.488   0.494   0.502
 45 A"  130 A'  131 A'  132 A'  133 A'   46 A"  134 A'  135 A'                 
  0.515   0.523   0.529   0.529   0.544   0.554   0.557   0.560
 47 A"  136 A'   48 A"  137 A'  138 A'  139 A'   49 A"  140 A'                 
  0.563   0.563   0.566   0.580   0.585   0.592   0.596   0.605
141 A'   50 A"  142 A'   51 A"  143 A'  144 A'  145 A'  146 A'                 
  0.610   0.614   0.615   0.618   0.627   0.630   0.640   0.647
147 A'   52 A"  148 A'   53 A"   54 A"  149 A'  150 A'  151 A'                 
  0.659   0.666   0.675   0.684   0.689   0.691   0.694   0.699
152 A'  153 A'  154 A'  155 A'  156 A'   55 A"  157 A'   56 A"                 
  0.702   0.703   0.705   0.709   0.715   0.721   0.722   0.729
158 A'  159 A'   57 A"  160 A'  161 A'   58 A"  162 A'  163 A'                 
  0.741   0.751   0.761   0.765   0.771   0.775   0.780   0.781
164 A'  165 A'   59 A"  166 A'   60 A"  167 A'  168 A'   61 A"                 
  0.782   0.793   0.801   0.804   0.812   0.818   0.839   0.843
169 A'  170 A'  171 A'   62 A"  172 A'  173 A'   63 A"  174 A'                 
  0.847   0.852   0.860   0.876   0.881   0.885   0.888   0.897
175 A'  176 A'  177 A'  178 A'  179 A'   64 A"  180 A'   65 A"                 
  0.899   0.900   0.901   0.906   0.914   0.917   0.928   0.929
 66 A"  181 A'  182 A'  183 A'   67 A"   68 A"  184 A'   69 A"                 
  0.933   0.942   0.946   0.954   0.956   0.963   0.972   0.975
 70 A"  185 A'   71 A"   72 A"  186 A'   73 A"  187 A'   74 A"                 
  0.982   0.983   0.988   0.993   0.995   1.000   1.015   1.017
 75 A"  188 A'   76 A"  189 A'   77 A"  190 A'   78 A"  191 A'                 
  1.037   1.046   1.053   1.056   1.068   1.073   1.076   1.077
192 A'  193 A'   79 A"  194 A'  195 A'  196 A'   80 A"  197 A'                 
  1.086   1.099   1.131   1.138   1.149   1.159   1.174   1.179
 81 A"  198 A'  199 A'  200 A'   82 A"  201 A'   83 A"  202 A'                 
  1.184   1.186   1.204   1.210   1.228   1.248   1.260   1.288
203 A'   84 A"  204 A'  205 A'   85 A"   86 A"   87 A"  206 A'                 
  1.304   1.311   1.318   1.351   1.367   1.378   1.381   1.446
207 A'   88 A"  208 A'  209 A'   89 A"  210 A'  211 A'  212 A'                 
  1.457   1.461   1.486   1.489   1.495   1.501   1.514   1.519
 90 A"  213 A'   91 A"  214 A'  215 A'   92 A"   93 A"  216 A'                 
  1.526   1.541   1.564   1.570   1.577   1.580   1.598   1.600
 94 A"  217 A'  218 A'  219 A'   95 A"  220 A'  221 A'   96 A"                 
  1.605   1.608   1.613   1.635   1.640   1.648   1.667   1.680
222 A'  223 A'  224 A'  225 A'  226 A'  227 A'  228 A'  229 A'                 
  1.684   1.684   1.691   1.695   1.709   1.711   1.713   1.716
230 A'   97 A"  231 A'   98 A"  232 A'  233 A'   99 A"  100 A"                 
  1.716   1.727   1.736   1.737   1.747   1.751   1.756   1.772
234 A'  101 A"  235 A'  102 A"  103 A"  236 A'  237 A'  104 A"                 
  1.779   1.790   1.818   1.823   1.824   1.831   1.834   1.854
105 A"  238 A'  239 A'  240 A'  106 A"  241 A'  242 A'  243 A'                 
  1.869   1.895   1.906   1.909   1.919   1.932   1.933   1.951
244 A'  245 A'  107 A"  246 A'  108 A"  109 A"  247 A'  248 A'                 
  1.962   1.966   1.976   1.990   1.991   1.995   1.999   2.007
249 A'  110 A"  250 A'  251 A'  252 A'  253 A'  111 A"  112 A"                 
  2.007   2.011   2.021   2.038   2.045   2.061   2.079   2.109
254 A'  255 A'  113 A"  256 A'  257 A'  258 A'  259 A'  114 A"                 
  2.110   2.128   2.132   2.136   2.140   2.178   2.191   2.194
260 A'  115 A"  261 A'  262 A'  116 A"  263 A'  264 A'  117 A"                 
  2.205   2.210   2.212   2.224   2.239   2.245   2.260   2.266
265 A'  118 A"  266 A'  119 A"  267 A'  120 A"  268 A'  269 A'                 
  2.298   2.308   2.314   2.315   2.327   2.356   2.358   2.371
270 A'  271 A'  121 A"  272 A'  122 A"  273 A'  274 A'  123 A"                 
  2.373   2.380   2.384   2.398   2.411   2.441   2.444   2.462
275 A'  124 A"  276 A'  277 A'  278 A'  279 A'  280 A'  281 A'                 
  2.474   2.497   2.504   2.585   2.596   2.607   2.620   2.629
125 A"  282 A'  283 A'  284 A'  126 A"  127 A"  285 A'  128 A"                 
  2.637   2.673   2.678   2.686   2.756   2.757   2.800   2.807
129 A"  286 A'  287 A'  288 A'  130 A"  289 A'  290 A'  291 A'                 
  2.817   2.824   2.845   2.858   2.900   2.913   2.943   2.967
292 A'  293 A'  294 A'  295 A'  296 A'  131 A"  297 A'  298 A'                 
  2.984   2.998   3.019   3.054   3.064   3.078   3.117   3.154
299 A'  300 A'  301 A'  302 A'  303 A'  304 A'  305 A'  306 A'                 
  3.161   3.185   3.201   3.254   3.299   3.312   3.316   3.421
307 A'  132 A"  308 A'  309 A'  310 A'  311 A'  312 A'  313 A'                 
  3.458   3.512   3.547   3.598   3.633   3.668   3.718   3.763
314 A'  315 A'  316 A'  317 A'  318 A'  319 A'  320 A'  321 A'                 
  3.789   3.845   3.882   3.922   4.029   4.126   4.418   4.802
133 A"  134 A"  322 A'  323 A'  324 A'  325 A'  326 A'  327 A'                 
  4.837
328 A'                                                                         

 Occupation and symmetry of molecular orbitals

 Point group: Cs (2 irreducible representations).

                           A'   A"    All 
 ------------------------------------------
 All molecular orbitals:
  - Alpha                  328  134   462 
  - Beta                   328  134   462 
 ------------------------------------------
 Alpha orbitals:
  - Frozen occupied        22   2     24  
  - Active occupied        30   8     38  
  - Active virtual         276  124   400 
  - Frozen virtual         0    0     0   
 ------------------------------------------
 Beta orbitals:
  - Frozen occupied        22   2     24  
  - Active occupied        29   8     37  
  - Active virtual         277  124   401 
  - Frozen virtual         0    0     0   
 ------------------------------------------

 Import integrals:   CPU 0.00 s  wall 0.00 s

 Import integrals:   CPU 11264.77 s  wall 983.82 s

 MP2 amplitudes:   CPU 27.18 s  wall 2.28 s

Running a double precision version
           CCSD T amplitudes will be solved using DIIS.

           Start     Size      MaxIter   EConv     TConv     
           3         7         100       1.00e-06  1.00e-04  
 ------------------------------------------------------------------------------
           Energy (a.u.)   Ediff      Tdiff       Comment
 ------------------------------------------------------------------------------
         -1322.36798158                           
     1   -1322.33955228   2.84e-02   1.45e+00     Step took 07.12.
     2   -1322.40915761   6.96e-02   2.04e-01     
     3   -1322.40648244   2.68e-03   7.40e-02     
     4   -1322.41291419   6.43e-03   2.92e-02     Switched to DIIS steps.
     5   -1322.41553154   2.62e-03   1.66e-02     
     6   -1322.41611168   5.80e-04   9.30e-03     
     7   -1322.41612370   1.20e-05   2.31e-03     
     8   -1322.41610601   1.77e-05   1.26e-03     
     9   -1322.41610744   1.43e-06   4.20e-04     
    10   -1322.41610566   1.77e-06   2.12e-04     
    11   -1322.41611158   5.92e-06   1.66e-04     
    12   -1322.41611082   7.63e-07   4.75e-05     
 ------------------------------------------------------------------------------
         -1322.41611082                           CCSD T converged.

End of double precision
 SCF energy                 = -1320.26824012
 MP2 energy                 = -1322.36798158
 CCSD correlation energy    =    -2.14787070
 CCSD total energy          = -1322.41611082

 CCSD  T1^2 = 0.0300  T2^2 = 0.8525  Leading amplitudes:

 Amplitude    Orbitals with energies
  0.0277       52 (A') A                 ->    54 (A') A                  
              -0.2239                          0.0167                     
 -0.0180       7 (A") A                  ->    15 (A") A                  
              -0.3314                          0.0636                     
  0.0170       50 (A') A                 ->    72 (A') A                  
              -0.4265                          0.1356                     
 -0.0165       52 (A') A                 ->    59 (A') A                  
              -0.2239                          0.0456                     

 Amplitude    Orbitals with energies
  0.0303       10 (A") A     10 (A") B   ->    15 (A") A     14 (A") B    
              -0.2666       -0.2666            0.0636        0.0617       
 -0.0303       10 (A") A     10 (A") B   ->    14 (A") B     15 (A") A    
              -0.2666       -0.2666            0.0617        0.0636       
 -0.0303       10 (A") B     10 (A") A   ->    15 (A") A     14 (A") B    
              -0.2666       -0.2666            0.0636        0.0617       
  0.0303       10 (A") B     10 (A") A   ->    14 (A") B     15 (A") A    
              -0.2666       -0.2666            0.0617        0.0636       

 Computing CCSD intermediates for later calculations in double precision
 Finished.

Running a double precision version
           CCSD Lambda amplitudes will be solved using DIIS.
           Start     Size      MaxIter   EConv     LConv     
           3         7         100       1.00e-06  1.00e-04  
 ------------------------------------------------------------------------------
            Enorm      Ldiff       Comment
 ------------------------------------------------------------------------------
     1     9.66e-02   7.46e-02     
     2     2.35e-02   2.17e-03     
     3     1.03e-02   3.05e-03     
     4     4.70e-03   7.54e-04     Switched to DIIS steps.
     5     2.10e-03   6.29e-04     
     6     9.50e-04   3.09e-04     
     7     4.76e-04   6.22e-05     
     8     2.11e-04   9.45e-06     
     9     1.12e-04   5.36e-06     
    10     5.94e-05   4.16e-06     
    11     2.51e-05   3.68e-06     
    12     1.37e-05   6.55e-07     
    13     6.39e-06   8.57e-09     
    14     3.61e-06   1.17e-07     
    15     1.80e-06   2.74e-08     
    16     9.56e-07   2.67e-08     
 ------------------------------------------------------------------------------
                                   CCSD Lambda converged.

 CCSD calculation:   CPU 140008.11 s  wall 25294.52 s

        Solving for EOMEE-CCSD A' transitions.

Running a double precision version
        EOMEE-CCSD/MP2 right amplitudes will be solved using Davidson.
        Amplitudes will be solved using standard  algorithm.
     Hard-coded thresholds: 
     LinDepThresh=1.00e-15  NormThresh=1.00e-06  ReorthogonThresh=1.00e-02

      Roots     MaxVec    MaxIter   Precond   Conv      Shift    
      9         120       60        1         1.00e-05  0.00e+00  
 ------------------------------------------------------------------------------
      Iter ConvRoots NVecs ResNorm^2 Current eigenvalues (eV)
 ------------------------------------------------------------------------------
      0    0      9     1.20e-02   2.4326   3.2350   4.1908   4.4020   4.8600   5.3120   5.4059   6.5037   6.5453   
      1    0      18    8.25e-03   2.2864   3.0099   4.0422   4.2085   4.6923   5.0270   5.1121   6.0979   6.1725   
      2    0      27    3.27e-03   2.1158   2.4984   3.5220   3.8606   4.4268   4.5916   4.7367   5.7584   5.8311   
      3    0      36    2.61e-03   2.0853   2.3744   3.1195   3.8240   4.1784   4.4817   4.5356   5.0143   5.4444   
      4    0      45    9.20e-04   2.0794   2.3589   3.0391   3.8163   4.0325   4.4658   4.4820   4.8399   5.1419   
      5    1      54    1.86e-04   2.0781*  2.3556   3.0289   3.8128   3.9792   4.4624   4.4666   4.8124   5.0179   
      6    2      62    1.25e-04   2.0780*  2.3549   3.0281*  3.8098   3.9708   4.4615   4.4618   4.8079   4.9899   
      7    4      69    8.73e-04   2.0780*  2.3547*  3.0280*  3.8058   3.9690   4.3554   4.4611*  4.4782   4.8067   
      8    6      74    4.25e-04   2.0780*  2.3546*  3.0280*  3.8008   3.9685*  4.1468   4.4610*  4.4681   4.8064*  
      9    6      77    1.73e-04   2.0780*  2.3545*  3.0280*  3.7943   3.9684*  4.0294   4.4610*  4.4663   4.8064*  
      10   6      80    7.25e-05   2.0780*  2.3545*  3.0280*  3.7908   3.9682   3.9875   4.4610*  4.4658*  4.8063*  
      11   6      83    3.72e-05   2.0780*  2.3545*  3.0280*  3.7893   3.9671   3.9729   4.4607*  4.4656*  4.8063*  
      12   3      86    3.89e-03   2.0780*  2.3545*  3.0280*  3.7880   3.9546   3.9686   4.4545   4.4606   4.4764   
      13   5      92    2.00e-03   2.0780*  2.3545*  3.0280*  3.3422   3.7899   3.9677   3.9774   4.4602*  4.4656*  
      14   5      96    7.40e-04   2.0780*  2.3545*  2.8471   3.0280*  3.7891   3.9659   3.9705   4.4600*  4.4655*  
      15   6      100   2.51e-04   2.0780*  2.3545*  2.6883   3.0280*  3.7887*  3.9641   3.9695   4.4600*  4.4655*  
      16   7      103   8.44e-05   2.0780*  2.3545*  2.6287   3.0280*  3.7885*  3.9630   3.9692*  4.4600*  4.4653*  
      17   5      105   3.64e-04   2.0780*  2.3545*  2.6097   3.0280*  3.7885*  3.9619   3.9691*  4.4520   4.4601   
      18   6      109   3.53e-04   2.0780*  2.3545*  2.6001   3.0280*  3.7884*  3.9611   3.9690*  4.3213   4.4598*  
      19   5      112   8.10e-04   2.0780*  2.3545*  2.5960   3.0280*  3.7884*  3.9599   3.9689*  4.1615   4.4145   
      20   4      116   6.03e-04   2.0780*  2.3545*  2.5946   3.0280*  3.7883*  3.9490   3.9683   3.9805   4.3550   
      21   4      120   3.85e-04   2.0780*  2.3545*  2.5933   3.0280*  3.7882   3.8099   3.9620   3.9691*  4.3414   
      22   7      14    1.20e-04   2.0780*  2.3545*  2.5933*  3.0280*  3.7530   3.7886*  3.9617*  3.9691*  4.3243   
      23   7      16    9.79e-05   2.0780*  2.3545*  2.5930*  3.0280*  3.7167   3.7885*  3.9616*  3.9691*  4.3172   
      24   7      18    4.84e-05   2.0780*  2.3545*  2.5930*  3.0280*  3.6968   3.7885*  3.9615*  3.9690*  4.3123   
      25   7      20    2.89e-05   2.0780*  2.3545*  2.5930*  3.0280*  3.6857   3.7885*  3.9615*  3.9690*  4.3080   
      26   7      22    1.53e-05   2.0780*  2.3545*  2.5930*  3.0280*  3.6785   3.7884*  3.9614*  3.9690*  4.3076   
      27   7      24    1.28e-05   2.0780*  2.3545*  2.5930*  3.0280*  3.6761   3.7884*  3.9614*  3.9690*  4.3047   
      28   7      26    1.44e-05   2.0780*  2.3545*  2.5930*  3.0280*  3.6740   3.7884*  3.9614*  3.9690*  4.3010   
      29   7      28    1.89e-05   2.0780*  2.3545*  2.5930*  3.0280*  3.6728   3.7884*  3.9614*  3.9690*  4.2973   
      30   8      30    2.90e-05   2.0780*  2.3545*  2.5930*  3.0280*  3.6725*  3.7884*  3.9614*  3.9690*  4.2873   
      31   8      31    4.29e-05   2.0780*  2.3545*  2.5930*  3.0280*  3.6724*  3.7884*  3.9614*  3.9690*  4.2739   
      32   8      32    4.09e-05   2.0780*  2.3545*  2.5930*  3.0280*  3.6724*  3.7884*  3.9614*  3.9690*  4.2594   
      33   8      33    2.80e-05   2.0780*  2.3545*  2.5930*  3.0280*  3.6724*  3.7884*  3.9614*  3.9690*  4.2460   
      34   8      34    1.80e-05   2.0780*  2.3545*  2.5930*  3.0280*  3.6724*  3.7884*  3.9614*  3.9690*  4.2385   
      35   8      35    1.25e-05   2.0780*  2.3545*  2.5930*  3.0280*  3.6724*  3.7884*  3.9614*  3.9690*  4.2332   
      36   8      36    1.00e-05   2.0780*  2.3545*  2.5930*  3.0280*  3.6724*  3.7884*  3.9614*  3.9690*  4.2290   
      37   8      37    9.25e-06   2.0780*  2.3545*  2.5930*  3.0280*  3.6723*  3.7884*  3.9614*  3.9690*  4.2258   
      38   8      38    8.97e-06   2.0780*  2.3545*  2.5930*  3.0280*  3.6723*  3.7884*  3.9613*  3.9690*  4.2228   
      39   8      39    6.39e-06   2.0780*  2.3545*  2.5930*  3.0280*  3.6723*  3.7884*  3.9614*  3.9690*  4.2203   
      40   8      40    4.66e-06   2.0780*  2.3545*  2.5930*  3.0280*  3.6723*  3.7884*  3.9614*  3.9690*  4.2186   
      41   8      41    3.60e-06   2.0780*  2.3545*  2.5930*  3.0280*  3.6723*  3.7884*  3.9614*  3.9690*  4.2174   
      42   8      42    3.18e-06   2.0780*  2.3545*  2.5930*  3.0280*  3.6723*  3.7884*  3.9614*  3.9690*  4.2164   
      43   8      43    3.10e-06   2.0780*  2.3545*  2.5930*  3.0280*  3.6723*  3.7884*  3.9614*  3.9690*  4.2157   
      44   8      44    3.15e-06   2.0780*  2.3545*  2.5930*  3.0280*  3.6723*  3.7884*  3.9614*  3.9690*  4.2150   
      45   8      45    3.13e-06   2.0780*  2.3545*  2.5930*  3.0280*  3.6723*  3.7884*  3.9614*  3.9690*  4.2142   
      46   8      46    2.74e-06   2.0780*  2.3545*  2.5930*  3.0280*  3.6723*  3.7884*  3.9614*  3.9690*  4.2136   
      47   8      47    2.54e-06   2.0780*  2.3545*  2.5930*  3.0280*  3.6723*  3.7884*  3.9614*  3.9690*  4.2130   
      48   8      48    2.21e-06   2.0780*  2.3545*  2.5930*  3.0280*  3.6723*  3.7884*  3.9614*  3.9690*  4.2124   
      49   9      49    2.04e-06   2.0780*  2.3545*  2.5930*  3.0280*  3.6723*  3.7884*  3.9614*  3.9690*  4.2120*  

     Davidson procedure converged

 EOMEE transition 1/A'
 Total energy = -1322.33974581 a.u.  Excitation energy = 2.0780 eV.
 R0^2 = 0.0000  R1^2 = 0.9952  R2^2 = 0.0048  Res^2 = 1.28e-06
 Conv-d = yes

 Amplitude    Transitions between orbitals
 -0.8665       52 (A') A                 ->    53 (A') A                  
  0.4098       52 (A') A                 ->    56 (A') A                  
  0.1280       52 (A') A                 ->    72 (A') A                  
  0.0988       52 (A') A                 ->    69 (A') A                  

              Summary of significant orbitals:

               Number  Type             Irrep      Energy
               62      Occ  Alpha      52 (A')     -0.2239
               63      Vir  Alpha      53 (A')     -0.0009
               67      Vir  Alpha      56 (A')      0.0347
               84      Vir  Alpha      69 (A')      0.1072
               93      Vir  Alpha      72 (A')      0.1356


 EOMEE transition 2/A'
 Total energy = -1322.32958391 a.u.  Excitation energy = 2.3545 eV.
 R0^2 = 0.0026  R1^2 = 0.9911  R2^2 = 0.0089  Res^2 = 2.08e-07
 Conv-d = yes

 Amplitude    Transitions between orbitals
  0.6382       52 (A') A                 ->    54 (A') A                  
 -0.3743       52 (A') A                 ->    59 (A') A                  
 -0.2779       52 (A') A                 ->    62 (A') A                  
 -0.2489       52 (A') A                 ->    55 (A') A                  
  0.2465       52 (A') A                 ->    57 (A') A                  
 -0.2454       52 (A') A                 ->    58 (A') A                  
  0.1651       52 (A') A                 ->    64 (A') A                  
 -0.1574       52 (A') A                 ->    66 (A') A                  
 -0.1456       52 (A') A                 ->    73 (A') A                  
 -0.1336       52 (A') A                 ->    65 (A') A                  
  0.1275       52 (A') A                 ->    74 (A') A                  

              Summary of significant orbitals:

               Number  Type             Irrep      Energy
               62      Occ  Alpha      52 (A')     -0.2239
               65      Vir  Alpha      54 (A')      0.0167
               66      Vir  Alpha      55 (A')      0.0210
               69      Vir  Alpha      57 (A')      0.0403
               70      Vir  Alpha      58 (A')      0.0452
               71      Vir  Alpha      59 (A')      0.0456
               76      Vir  Alpha      62 (A')      0.0569
               79      Vir  Alpha      64 (A')      0.0678
               80      Vir  Alpha      65 (A')      0.0775
               81      Vir  Alpha      66 (A')      0.0838
               94      Vir  Alpha      73 (A')      0.1374
               95      Vir  Alpha      74 (A')      0.1425


 EOMEE transition 3/A'
 Total energy = -1322.32082004 a.u.  Excitation energy = 2.5930 eV.
 R0^2 = 0.0000  R1^2 = 0.9295  R2^2 = 0.0705  Res^2 = 3.87e-07
 Conv-d = yes

 Amplitude    Transitions between orbitals
  0.5421       10 (A") A                 ->    15 (A") A                  
  0.5060       10 (A") B                 ->    14 (A") B                  
 -0.2908       10 (A") B                 ->    15 (A") B                  
  0.2512       10 (A") A                 ->    14 (A") A                  
 -0.1207       10 (A") B                 ->    13 (A") B                  

              Summary of significant orbitals:

               Number  Type             Irrep      Energy
               61      Occ  Alpha      10 (A")     -0.2666
               61      Occ  Beta       10 (A")     -0.2666
               75      Vir  Alpha      14 (A")      0.0564
               77      Vir  Alpha      15 (A")      0.0636
               73      Vir  Beta       13 (A")      0.0549
               75      Vir  Beta       14 (A")      0.0617
               77      Vir  Beta       15 (A")      0.0661


 EOMEE transition 4/A'
 Total energy = -1322.30483360 a.u.  Excitation energy = 3.0280 eV.
 R0^2 = 0.0000  R1^2 = 0.9911  R2^2 = 0.0089  Res^2 = 1.21e-06
 Conv-d = yes

 Amplitude    Transitions between orbitals
  0.7250       52 (A') A                 ->    70 (A') A                  
 -0.4940       52 (A') A                 ->    58 (A') A                  
  0.3441       52 (A') A                 ->    59 (A') A                  
  0.1603       52 (A') A                 ->    97 (A') A                  
 -0.1108       52 (A') A                 ->    66 (A') A                  
 -0.1019       52 (A') A                 ->    69 (A') A                  

              Summary of significant orbitals:

               Number  Type             Irrep      Energy
               62      Occ  Alpha      52 (A')     -0.2239
               70      Vir  Alpha      58 (A')      0.0452
               71      Vir  Alpha      59 (A')      0.0456
               81      Vir  Alpha      66 (A')      0.0838
               84      Vir  Alpha      69 (A')      0.1072
               86      Vir  Alpha      70 (A')      0.1097
               133     Vir  Alpha      97 (A')      0.2716


 EOMEE transition 5/A'
 Total energy = -1322.28115585 a.u.  Excitation energy = 3.6723 eV.
 R0^2 = 0.0000  R1^2 = 0.9401  R2^2 = 0.0599  Res^2 = 5.71e-06
 Conv-d = yes

 Amplitude    Transitions between orbitals
 -0.3259       7 (A") A                  ->    15 (A") A                  
 -0.3139       7 (A") B                  ->    14 (A") B                  
  0.2413       8 (A") A                  ->    15 (A") A                  
  0.2091       8 (A") B                  ->    14 (A") B                  
  0.1824       7 (A") B                  ->    15 (A") B                  
 -0.1703       10 (A") B                 ->    20 (A") B                  
 -0.1569       10 (A") A                 ->    20 (A") A                  
 -0.1481       7 (A") A                  ->    14 (A") A                  
 -0.1461       8 (A") A                  ->    17 (A") A                  
  0.1363       10 (A") A                 ->    28 (A") A                  
  0.1362       8 (A") B                  ->    17 (A") B                  
 -0.1337       10 (A") B                 ->    18 (A") B                  
  0.1315       7 (A") B                  ->    16 (A") B                  
  0.1312       8 (A") B                  ->    16 (A") B                  
 -0.1307       8 (A") B                  ->    15 (A") B                  
  0.1274       10 (A") B                 ->    28 (A") B                  
  0.1217       10 (A") A                 ->    23 (A") A                  
 -0.1198       7 (A") A                  ->    17 (A") A                  
 -0.1191       10 (A") A                 ->    21 (A") A                  
  0.1188       10 (A") B                 ->    21 (A") B                  
 -0.1130       10 (A") A                 ->    19 (A") A                  
  0.1120       8 (A") A                  ->    19 (A") A                  
 -0.1037       9 (A") A                  ->    15 (A") A                  
  0.1020       10 (A") A                 ->    18 (A") A                  
 -0.1001       9 (A") B                  ->    14 (A") B                  

              Summary of significant orbitals:

               Number  Type             Irrep      Energy
               58      Occ  Alpha       7 (A")     -0.3314
               59      Occ  Alpha       8 (A")     -0.3289
               60      Occ  Alpha       9 (A")     -0.3266
               61      Occ  Alpha      10 (A")     -0.2666
               58      Occ  Beta        7 (A")     -0.3316
               59      Occ  Beta        8 (A")     -0.3289
               60      Occ  Beta        9 (A")     -0.3268
               61      Occ  Beta       10 (A")     -0.2666
               75      Vir  Alpha      14 (A")      0.0564
               77      Vir  Alpha      15 (A")      0.0636
               87      Vir  Alpha      17 (A")      0.1130
               88      Vir  Alpha      18 (A")      0.1218
               90      Vir  Alpha      19 (A")      0.1243
               91      Vir  Alpha      20 (A")      0.1271
               92      Vir  Alpha      21 (A")      0.1353
               99      Vir  Alpha      23 (A")      0.1507
               116     Vir  Alpha      28 (A")      0.2000
               75      Vir  Beta       14 (A")      0.0617
               77      Vir  Beta       15 (A")      0.0661
               84      Vir  Beta       16 (A")      0.1112
               86      Vir  Beta       17 (A")      0.1197
               87      Vir  Beta       18 (A")      0.1227
               91      Vir  Beta       20 (A")      0.1351
               92      Vir  Beta       21 (A")      0.1384
               115     Vir  Beta       28 (A")      0.2008


 EOMEE transition 6/A'
 Total energy = -1322.27688813 a.u.  Excitation energy = 3.7884 eV.
 R0^2 = 0.0001  R1^2 = 0.9750  R2^2 = 0.0250  Res^2 = 2.01e-08
 Conv-d = yes

 Amplitude    Transitions between orbitals
  0.7558       52 (A') A                 ->    55 (A') A                  
  0.3950       52 (A') A                 ->    54 (A') A                  
  0.2352       10 (A") A                 ->    15 (A") A                  
 -0.2337       10 (A") B                 ->    14 (A") B                  
  0.1943       52 (A') A                 ->    77 (A') A                  
  0.1266       10 (A") A                 ->    14 (A") A                  
  0.1224       52 (A') A                 ->    78 (A') A                  
  0.1222       10 (A") B                 ->    15 (A") B                  

              Summary of significant orbitals:

               Number  Type             Irrep      Energy
               62      Occ  Alpha      52 (A')     -0.2239
               61      Occ  Alpha      10 (A")     -0.2666
               61      Occ  Beta       10 (A")     -0.2666
               65      Vir  Alpha      54 (A')      0.0167
               66      Vir  Alpha      55 (A')      0.0210
               100     Vir  Alpha      77 (A')      0.1542
               101     Vir  Alpha      78 (A')      0.1586
               75      Vir  Alpha      14 (A")      0.0564
               77      Vir  Alpha      15 (A")      0.0636
               75      Vir  Beta       14 (A")      0.0617
               77      Vir  Beta       15 (A")      0.0661


 EOMEE transition 7/A'
 Total energy = -1322.27053327 a.u.  Excitation energy = 3.9614 eV.
 R0^2 = 0.0003  R1^2 = 0.9260  R2^2 = 0.0740  Res^2 = 2.54e-07
 Conv-d = yes

 Amplitude    Transitions between orbitals
 -0.4761       10 (A") A                 ->    15 (A") A                  
  0.4674       10 (A") B                 ->    14 (A") B                  
  0.2797       52 (A') A                 ->    55 (A') A                  
 -0.2549       10 (A") B                 ->    15 (A") B                  
 -0.2462       10 (A") A                 ->    14 (A") A                  
  0.2226       52 (A') A                 ->    54 (A') A                  
  0.1760       52 (A') A                 ->    72 (A') A                  
  0.1227       52 (A') A                 ->    56 (A') A                  
  0.1137       10 (A") A                 ->    11 (A") A                  
 -0.1113       52 (A') A                 ->    61 (A') A                  
 -0.1081       10 (A") B                 ->    13 (A") B                  
  0.1067       52 (A') A                 ->    53 (A') A                  

              Summary of significant orbitals:

               Number  Type             Irrep      Energy
               62      Occ  Alpha      52 (A')     -0.2239
               61      Occ  Alpha      10 (A")     -0.2666
               61      Occ  Beta       10 (A")     -0.2666
               63      Vir  Alpha      53 (A')     -0.0009
               65      Vir  Alpha      54 (A')      0.0167
               66      Vir  Alpha      55 (A')      0.0210
               67      Vir  Alpha      56 (A')      0.0347
               74      Vir  Alpha      61 (A')      0.0529
               93      Vir  Alpha      72 (A')      0.1356
               64      Vir  Alpha      11 (A")     -0.0002
               75      Vir  Alpha      14 (A")      0.0564
               77      Vir  Alpha      15 (A")      0.0636
               73      Vir  Beta       13 (A")      0.0549
               75      Vir  Beta       14 (A")      0.0617
               77      Vir  Beta       15 (A")      0.0661


 EOMEE transition 8/A'
 Total energy = -1322.27025183 a.u.  Excitation energy = 3.9690 eV.
 R0^2 = 0.0000  R1^2 = 0.9773  R2^2 = 0.0227  Res^2 = 3.80e-08
 Conv-d = yes

 Amplitude    Transitions between orbitals
 -0.4865       52 (A') A                 ->    72 (A') A                  
 -0.3517       52 (A') A                 ->    56 (A') A                  
 -0.3186       52 (A') A                 ->    53 (A') A                  
  0.3123       52 (A') A                 ->    61 (A') A                  
 -0.2518       52 (A') A                 ->    63 (A') A                  
 -0.2294       52 (A') A                 ->    71 (A') A                  
 -0.2071       52 (A') A                 ->    69 (A') A                  
 -0.1697       52 (A') A                 ->    68 (A') A                  
 -0.1601       10 (A") A                 ->    15 (A") A                  
  0.1582       10 (A") B                 ->    14 (A") B                  
  0.1345       52 (A') A                 ->    73 (A') A                  
  0.1284       52 (A') A                 ->    94 (A') A                  
 -0.1271       52 (A') A                 ->    75 (A') A                  
  0.1065       52 (A') A                 ->    92 (A') A                  
  0.1053       52 (A') A                 ->    85 (A') A                  

              Summary of significant orbitals:

               Number  Type             Irrep      Energy
               62      Occ  Alpha      52 (A')     -0.2239
               61      Occ  Alpha      10 (A")     -0.2666
               61      Occ  Beta       10 (A")     -0.2666
               63      Vir  Alpha      53 (A')     -0.0009
               67      Vir  Alpha      56 (A')      0.0347
               74      Vir  Alpha      61 (A')      0.0529
               78      Vir  Alpha      63 (A')      0.0659
               83      Vir  Alpha      68 (A')      0.1018
               84      Vir  Alpha      69 (A')      0.1072
               89      Vir  Alpha      71 (A')      0.1226
               93      Vir  Alpha      72 (A')      0.1356
               94      Vir  Alpha      73 (A')      0.1374
               96      Vir  Alpha      75 (A')      0.1449
               110     Vir  Alpha      85 (A')      0.1860
               123     Vir  Alpha      92 (A')      0.2330
               126     Vir  Alpha      94 (A')      0.2436
               77      Vir  Alpha      15 (A")      0.0636
               75      Vir  Beta       14 (A")      0.0617


 EOMEE transition 9/A'
 Total energy = -1322.26132391 a.u.  Excitation energy = 4.2120 eV.
 R0^2 = 0.0000  R1^2 = 0.9189  R2^2 = 0.0811  Res^2 = 9.20e-06
 Conv-d = yes

 Amplitude    Transitions between orbitals
  0.3781       10 (A") A                 ->    19 (A") A                  
 -0.2930       10 (A") B                 ->    16 (A") B                  
  0.2887       10 (A") B                 ->    17 (A") B                  
 -0.2770       10 (A") B                 ->    19 (A") B                  
 -0.2491       10 (A") A                 ->    16 (A") A                  
 -0.2020       10 (A") A                 ->    20 (A") A                  
 -0.1854       10 (A") A                 ->    11 (A") A                  
 -0.1491       10 (A") A                 ->    22 (A") A                  
  0.1452       10 (A") A                 ->    17 (A") A                  
 -0.1424       10 (A") B                 ->    22 (A") B                  
 -0.1388       10 (A") A                 ->    29 (A") A                  
 -0.1341       7 (A") A                  ->    19 (A") A                  
  0.1314       10 (A") B                 ->    29 (A") B                  
  0.1210       9 (A") B                  ->    14 (A") B                  
  0.1165       9 (A") A                  ->    15 (A") A                  
 -0.1062       10 (A") A                 ->    15 (A") A                  
 -0.1049       7 (A") B                  ->    17 (A") B                  
  0.1000       10 (A") A                 ->    32 (A") A                  

              Summary of significant orbitals:

               Number  Type             Irrep      Energy
               58      Occ  Alpha       7 (A")     -0.3314
               60      Occ  Alpha       9 (A")     -0.3266
               61      Occ  Alpha      10 (A")     -0.2666
               58      Occ  Beta        7 (A")     -0.3316
               60      Occ  Beta        9 (A")     -0.3268
               61      Occ  Beta       10 (A")     -0.2666
               64      Vir  Alpha      11 (A")     -0.0002
               77      Vir  Alpha      15 (A")      0.0636
               85      Vir  Alpha      16 (A")      0.1080
               87      Vir  Alpha      17 (A")      0.1130
               90      Vir  Alpha      19 (A")      0.1243
               91      Vir  Alpha      20 (A")      0.1271
               97      Vir  Alpha      22 (A")      0.1468
               118     Vir  Alpha      29 (A")      0.2028
               125     Vir  Alpha      32 (A")      0.2432
               75      Vir  Beta       14 (A")      0.0617
               84      Vir  Beta       16 (A")      0.1112
               86      Vir  Beta       17 (A")      0.1197
               90      Vir  Beta       19 (A")      0.1290
               95      Vir  Beta       22 (A")      0.1471
               118     Vir  Beta       29 (A")      0.2037


Running a double precision version
      EOM-CCSD/MP2 left amplitudes will be solved using Davidson.
        Amplitudes will be solved using MOM  algorithm.
     Hard-coded thresholds: 
     LinDepThresh=1.00e-15  NormThresh=1.00e-06  ReorthogonThresh=1.00e-02

      Roots     MaxVec    MaxIter   Precond   Conv      Shift    
      9         120       60        1         1.00e-05  0.00e+00  
 ------------------------------------------------------------------------------
      Iter ConvRoots NVecs ResNorm^2 Current eigenvalues (eV)
 ------------------------------------------------------------------------------
      0    0      9     3.59e-03   2.0780   2.3545   2.5930   3.0280   3.6723   3.7884   3.9614   3.9690   4.2120   
      1    0      18    7.79e-04   2.0780   2.3545   2.5930   3.0280   3.6722   3.7884   3.9614   3.9690   4.2119   
      2    2      27    5.18e-05   2.0780*  2.3545   2.5930   3.0280*  3.6722   3.7884   3.9614   3.9690   4.2118   
      3    5      34    9.83e-06   2.0780*  2.3545*  2.5930   3.0280*  3.6721   3.7884*  3.9614   3.9690*  4.2118   
      4    9      38    4.62e-06   2.0780*  2.3545*  2.5930*  3.0280*  3.6721*  3.7884*  3.9614*  3.9690*  4.2117*  

     Davidson procedure converged

 EOMEE-CCSD transition 1/A'
S^2 calculation will be performed in  double precision
 EOMEE-CCSD transition 2/A'
S^2 calculation will be performed in  double precision
 EOMEE-CCSD transition 3/A'
S^2 calculation will be performed in  double precision
 EOMEE-CCSD transition 4/A'
S^2 calculation will be performed in  double precision
 EOMEE-CCSD transition 5/A'
S^2 calculation will be performed in  double precision
 EOMEE-CCSD transition 6/A'
S^2 calculation will be performed in  double precision
 EOMEE-CCSD transition 7/A'
S^2 calculation will be performed in  double precision
 EOMEE-CCSD transition 8/A'
S^2 calculation will be performed in  double precision
 EOMEE-CCSD transition 9/A'
S^2 calculation will be performed in  double precision
 Excited state properties for  EOMEE-CCSD transition 1/A'
 Dipole moment (a.u.): 2.210098 (X -2.206784, Y -0.120989, Z 0.000000)
 R-squared (a.u.): 8329.263524 (XX 7751.968015, YY 494.319553, ZZ 82.975956)
 Gauge origin (a.u.): (0.000000, 0.000000, 0.000000)
 Angular momentum (a.u.) against gauge origin: 
 (X 0.000000i, Y 0.000000i, Z 0.019890i)
 Traces of the OPDMs: Tr(AA) 62.000000, Tr(BB) 61.000000
 <S^2> = 0.751679

State OPDM analysis using libwa module will be excecuted
 Created directory /scratch/wojcik/qchem11263/plots
 NOs (alpha)
   Occupation of frontier NOs:
      0.0015   0.0039   0.9943   0.9993
   Number of electrons: 62.000000
 NOs (beta)
   Occupation of frontier NOs:
      0.0005   0.0013   0.9987   0.9992
   Number of electrons: 61.000000
 NOs (spin-traced)
   Occupation of frontier NOs:
      0.0047   0.9943   1.9981   1.9986
   Number of electrons: 123.000000
   Number of unpaired electrons: n_u =  1.01435, n_u,nl =  1.00009
   NO participation ratio (PR_NO):  1.040605
 
 Mulliken Population Analysis
  Atom      Charge (e)        Spin (e)
 -------------------------------------
  1  C        0.663667       -0.002269
  2  C        0.412827        0.002237
  3  C        0.604049        0.002188
  4  C        0.610343       -0.002298
  5  C        0.208468        0.001799
  6  C        0.597559       -0.001624
  7  N       -0.478146       -0.003249
  8  N       -0.500578        0.003501
  9  C        0.255809        0.009634
 10  C        0.346108       -0.005441
 11  C        0.856877        0.017837
 12  C        0.247819       -0.131338
 13  C        0.743555        0.017264
 14  C        0.682474        0.004019
 15  H       -0.483814        0.000079
 16  H       -0.616554       -0.000029
 17  H       -0.491681       -0.000074
 18  H       -0.472395        0.000081
 19  H       -0.591320       -0.000046
 20  H       -0.615622       -0.000737
 21  H       -0.588989        0.007388
 22  H       -0.593935        0.004441
 23  H       -0.643833       -0.000103
 24  O       -0.974154        0.060050
 25 Ca        0.821466       -0.983308
 -------------------------------------
  Sum:       -0.000000       -1.000000
 
 Multipole moment analysis of the density matrix
   Molecular charge:                      -0.000000
   Number of electrons:                   123.000000
     Center of electronic charge [Ang]: [  0.009494,   0.000521,   0.000000]
   Total nuclear charge:                  123.000000
     Center of nuclear charge [Ang]:    [ -0.000000,  -0.000000,   0.000000]
   Dipole moment [D]:                     5.617508
     Cartesian components [D]:          [ -5.609085,  -0.307522,  -0.000000]
   RMS size of the density [Ang]:         4.354626
     Cartesian components [Ang]:        [  4.201007,   1.060846,   0.434635]
 

 Excited state properties for  EOMEE-CCSD transition 2/A'
 Dipole moment (a.u.): 2.408860 (X -2.405393, Y -0.129194, Z 0.000000)
 R-squared (a.u.): 8325.253648 (XX 7757.555261, YY 484.128926, ZZ 83.569461)
 Gauge origin (a.u.): (0.000000, 0.000000, 0.000000)
 Angular momentum (a.u.) against gauge origin: 
 (X 0.000000i, Y 0.000000i, Z 0.023748i)
 Traces of the OPDMs: Tr(AA) 62.000000, Tr(BB) 61.000000
 <S^2> = 0.751824

State OPDM analysis using libwa module will be excecuted
 NOs (alpha)
   Occupation of frontier NOs:
      0.0024   0.0059   0.9886   0.9978
   Number of electrons: 62.000000
 NOs (beta)
   Occupation of frontier NOs:
      0.0007   0.0023   0.9973   0.9991
   Number of electrons: 61.000000
 NOs (spin-traced)
   Occupation of frontier NOs:
      0.0061   0.9890   1.9951   1.9980
   Number of electrons: 123.000000
   Number of unpaired electrons: n_u =  1.02756, n_u,nl =  1.00019
   NO participation ratio (PR_NO):  1.079407
 
 Mulliken Population Analysis
  Atom      Charge (e)        Spin (e)
 -------------------------------------
  1  C        0.663443       -0.002067
  2  C        0.412049        0.001943
  3  C        0.603701        0.001949
  4  C        0.610218       -0.002096
  5  C        0.208475        0.001508
  6  C        0.597667       -0.001191
  7  N       -0.478806       -0.003015
  8  N       -0.502138        0.002872
  9  C        0.251885        0.014972
 10  C        0.341097       -0.011046
 11  C        0.843345        0.015758
 12  C        0.090570       -0.316193
 13  C        0.748429        0.036786
 14  C        0.686901        0.012772
 15  H       -0.484173        0.000071
 16  H       -0.616808       -0.000063
 17  H       -0.492215       -0.000063
 18  H       -0.472840        0.000069
 19  H       -0.591448       -0.000057
 20  H       -0.614738        0.002210
 21  H       -0.638534       -0.038936
 22  H       -0.642383       -0.040856
 23  H       -0.642744        0.002921
 24  O       -0.950426        0.070298
 25 Ca        1.069474       -0.748545
 -------------------------------------
  Sum:       -0.000000       -1.000000
 
 Multipole moment analysis of the density matrix
   Molecular charge:                      -0.000000
   Number of electrons:                   123.000000
     Center of electronic charge [Ang]: [  0.010349,   0.000556,   0.000000]
   Total nuclear charge:                  123.000000
     Center of nuclear charge [Ang]:    [ -0.000000,  -0.000000,   0.000000]
   Dipole moment [D]:                     6.122711
     Cartesian components [D]:          [ -6.113899,  -0.328377,  -0.000000]
   RMS size of the density [Ang]:         4.353576
     Cartesian components [Ang]:        [  4.202519,   1.049854,   0.436187]
 

 Excited state properties for  EOMEE-CCSD transition 3/A'
 Dipole moment (a.u.): 3.140815 (X -3.139889, Y -0.076248, Z 0.000000)
 R-squared (a.u.): 8318.560500 (XX 7750.150643, YY 484.628873, ZZ 83.780984)
 Gauge origin (a.u.): (0.000000, 0.000000, 0.000000)
 Angular momentum (a.u.) against gauge origin: 
 (X 0.000000i, Y 0.000000i, Z 0.007434i)
 Traces of the OPDMs: Tr(AA) 62.000000, Tr(BB) 61.000000
 <S^2> = 2.753522

State OPDM analysis using libwa module will be excecuted
 NOs (alpha)
   Occupation of frontier NOs:
      0.0303   0.4308   0.5667   0.9675
   Number of electrons: 62.000000
 NOs (beta)
   Occupation of frontier NOs:
      0.0301   0.4287   0.5686   0.9677
   Number of electrons: 61.000000
 NOs (spin-traced)
   Occupation of frontier NOs:
      0.8594   0.9991   1.1352   1.9352
   Number of electrons: 123.000000
   Number of unpaired electrons: n_u =  3.14576, n_u,nl =  2.97018
   NO participation ratio (PR_NO):  3.963613
 
 Mulliken Population Analysis
  Atom      Charge (e)        Spin (e)
 -------------------------------------
  1  C        0.662308       -0.002107
  2  C        0.410353        0.001988
  3  C        0.597073        0.001906
  4  C        0.623144       -0.002065
  5  C        0.224259        0.001759
  6  C        0.573720       -0.000702
  7  N       -0.512296       -0.002205
  8  N       -0.560132        0.001855
  9  C        0.190841       -0.006431
 10  C        0.448952        0.010288
 11  C        0.816086       -0.000018
 12  C        0.411130       -0.024847
 13  C        0.675228       -0.010038
 14  C        0.717488        0.004296
 15  H       -0.484584        0.000077
 16  H       -0.622937       -0.000085
 17  H       -0.492382       -0.000069
 18  H       -0.473787        0.000072
 19  H       -0.591833       -0.000068
 20  H       -0.611578        0.000666
 21  H       -0.598585       -0.009323
 22  H       -0.602886       -0.009765
 23  H       -0.649284        0.000639
 24  O       -0.982212        0.044942
 25 Ca        0.831913       -1.000763
 -------------------------------------
  Sum:       -0.000000       -1.000000
 
 Multipole moment analysis of the density matrix
   Molecular charge:                      -0.000000
   Number of electrons:                   123.000000
     Center of electronic charge [Ang]: [  0.013509,   0.000328,   0.000000]
   Total nuclear charge:                  123.000000
     Center of nuclear charge [Ang]:    [ -0.000000,  -0.000000,   0.000000]
   Dipole moment [D]:                     7.983155
     Cartesian components [D]:          [ -7.980802,  -0.193803,  -0.000000]
   RMS size of the density [Ang]:         4.351816
     Cartesian components [Ang]:        [  4.200504,   1.050396,   0.436738]
 

 Excited state properties for  EOMEE-CCSD transition 4/A'
 Dipole moment (a.u.): 4.205782 (X -4.196174, Y -0.284119, Z 0.000000)
 R-squared (a.u.): 8279.116033 (XX 7707.437883, YY 485.992594, ZZ 85.685557)
 Gauge origin (a.u.): (0.000000, 0.000000, 0.000000)
 Angular momentum (a.u.) against gauge origin: 
 (X 0.000000i, Y 0.000000i, Z 0.028755i)
 Traces of the OPDMs: Tr(AA) 62.000000, Tr(BB) 61.000000
 <S^2> = 0.751858

State OPDM analysis using libwa module will be excecuted
 NOs (alpha)
   Occupation of frontier NOs:
      0.0014   0.0041   0.9930   0.9990
   Number of electrons: 62.000000
 NOs (beta)
   Occupation of frontier NOs:
      0.0005   0.0010   0.9991   0.9993
   Number of electrons: 61.000000
 NOs (spin-traced)
   Occupation of frontier NOs:
      0.0041   0.9931   1.9981   1.9984
   Number of electrons: 123.000000
   Number of unpaired electrons: n_u =  1.01552, n_u,nl =  1.00006
   NO participation ratio (PR_NO):  1.045527
 
 Mulliken Population Analysis
  Atom      Charge (e)        Spin (e)
 -------------------------------------
  1  C        0.662830       -0.002417
  2  C        0.411125        0.001932
  3  C        0.603388        0.002177
  4  C        0.609886       -0.002320
  5  C        0.208868        0.001867
  6  C        0.597353       -0.001283
  7  N       -0.479150       -0.002990
  8  N       -0.503111        0.002410
  9  C        0.243723        0.002627
 10  C        0.324559       -0.033070
 11  C        0.856440       -0.001650
 12  C        0.387368        0.094617
 13  C        0.748070        0.010593
 14  C        0.650377       -0.040109
 15  H       -0.484686        0.000068
 16  H       -0.616864        0.000046
 17  H       -0.493005       -0.000075
 18  H       -0.473419        0.000080
 19  H       -0.591489       -0.000071
 20  H       -0.617913        0.001009
 21  H       -0.608598       -0.010163
 22  H       -0.610636       -0.010099
 23  H       -0.646031        0.001116
 24  O       -1.000521        0.030952
 25 Ca        0.821436       -1.045247
 -------------------------------------
  Sum:       -0.000000       -1.000000
 
 Multipole moment analysis of the density matrix
   Molecular charge:                      0.000000
   Number of electrons:                   123.000000
     Center of electronic charge [Ang]: [  0.018053,   0.001222,  -0.000000]
   Total nuclear charge:                  123.000000
     Center of nuclear charge [Ang]:    [ -0.000000,  -0.000000,   0.000000]
   Dipole moment [D]:                     10.690030
     Cartesian components [D]:          [-10.665610,  -0.722158,   0.000000]
   RMS size of the density [Ang]:         4.341470
     Cartesian components [Ang]:        [  4.188896,   1.051873,   0.441675]
 

 Excited state properties for  EOMEE-CCSD transition 5/A'
 Dipole moment (a.u.): 2.101931 (X -2.099916, Y -0.092016, Z 0.000000)
 R-squared (a.u.): 8319.510765 (XX 7750.589368, YY 484.991761, ZZ 83.929636)
 Gauge origin (a.u.): (0.000000, 0.000000, 0.000000)
 Angular momentum (a.u.) against gauge origin: 
 (X 0.000000i, Y 0.000000i, Z 0.016644i)
 Traces of the OPDMs: Tr(AA) 62.000000, Tr(BB) 61.000000
 <S^2> = 2.753546

State OPDM analysis using libwa module will be excecuted
 NOs (alpha)
   Occupation of frontier NOs:
      0.1412   0.2504   0.7476   0.8557
   Number of electrons: 62.000000
 NOs (beta)
   Occupation of frontier NOs:
      0.1309   0.2540   0.7434   0.8660
   Number of electrons: 61.000000
 NOs (spin-traced)
   Occupation of frontier NOs:
      0.5042   0.9992   1.4913   1.7214
   Number of electrons: 123.000000
   Number of unpaired electrons: n_u =  3.12830, n_u,nl =  2.75522
   NO participation ratio (PR_NO):  5.726887
 
 Mulliken Population Analysis
  Atom      Charge (e)        Spin (e)
 -------------------------------------
  1  C        0.667544       -0.002304
  2  C        0.409815        0.001392
  3  C        0.596934        0.001775
  4  C        0.612244       -0.003010
  5  C        0.239942        0.002136
  6  C        0.597735       -0.002094
  7  N       -0.484922       -0.003941
  8  N       -0.526345        0.004014
  9  C        0.213256       -0.000394
 10  C        0.414352        0.011433
 11  C        0.785922       -0.001348
 12  C        0.419035       -0.022553
 13  C        0.667561       -0.006137
 14  C        0.698865       -0.002070
 15  H       -0.483234        0.000081
 16  H       -0.620411        0.000039
 17  H       -0.489946       -0.000044
 18  H       -0.471606        0.000078
 19  H       -0.590785       -0.000034
 20  H       -0.616212        0.000591
 21  H       -0.604869       -0.009516
 22  H       -0.608604       -0.009861
 23  H       -0.651678        0.000563
 24  O       -0.988263        0.050016
 25 Ca        0.813668       -1.008810
 -------------------------------------
  Sum:       -0.000000       -1.000000
 
 Multipole moment analysis of the density matrix
   Molecular charge:                      -0.000000
   Number of electrons:                   123.000000
     Center of electronic charge [Ang]: [  0.009034,   0.000396,   0.000000]
   Total nuclear charge:                  123.000000
     Center of nuclear charge [Ang]:    [ -0.000000,  -0.000000,   0.000000]
   Dipole moment [D]:                     5.342576
     Cartesian components [D]:          [ -5.337454,  -0.233881,  -0.000000]
   RMS size of the density [Ang]:         4.352077
     Cartesian components [Ang]:        [  4.200635,   1.050790,   0.437126]
 

 Excited state properties for  EOMEE-CCSD transition 6/A'
 Dipole moment (a.u.): 0.152728 (X 0.126687, Y 0.085301, Z 0.000000)
 R-squared (a.u.): 8451.717692 (XX 7838.326423, YY 507.512946, ZZ 105.878323)
 Gauge origin (a.u.): (0.000000, 0.000000, 0.000000)
 Angular momentum (a.u.) against gauge origin: 
 (X 0.000000i, Y 0.000000i, Z 0.012735i)
 Traces of the OPDMs: Tr(AA) 62.000000, Tr(BB) 61.000000
 <S^2> = 0.753033

State OPDM analysis using libwa module will be excecuted
 NOs (alpha)
   Occupation of frontier NOs:
      0.0753   0.1682   0.8295   0.9235
   Number of electrons: 62.000000
 NOs (beta)
   Occupation of frontier NOs:
      0.0039   0.0766   0.9221   0.9965
   Number of electrons: 61.000000
 NOs (spin-traced)
   Occupation of frontier NOs:
      0.1684   0.8295   1.8457   1.9923
   Number of electrons: 123.000000
   Number of unpaired electrons: n_u =  1.37779, n_u,nl =  1.19816
   NO participation ratio (PR_NO):  2.486584
 
 Mulliken Population Analysis
  Atom      Charge (e)        Spin (e)
 -------------------------------------
  1  C        0.661517       -0.002195
  2  C        0.413862        0.002120
  3  C        0.603535        0.002369
  4  C        0.611449       -0.001992
  5  C        0.210114        0.002005
  6  C        0.589284       -0.000531
  7  N       -0.494099       -0.001317
  8  N       -0.513432        0.003379
  9  C        0.278282        0.018314
 10  C        0.315477       -0.036315
 11  C        0.875095        0.037564
 12  C        0.357621       -0.058815
 13  C        0.771954        0.038766
 14  C        0.632309       -0.040252
 15  H       -0.483678        0.000060
 16  H       -0.618649       -0.000001
 17  H       -0.491521       -0.000086
 18  H       -0.472228        0.000079
 19  H       -0.592246       -0.000161
 20  H       -0.618789       -0.010044
 21  H       -0.587896        0.013245
 22  H       -0.587548        0.015615
 23  H       -0.652116       -0.010869
 24  O       -0.985937        0.020146
 25 Ca        0.777640       -0.991083
 -------------------------------------
  Sum:       -0.000000       -1.000000
 
 Multipole moment analysis of the density matrix
   Molecular charge:                      -0.000000
   Number of electrons:                   123.000000
     Center of electronic charge [Ang]: [ -0.000545,  -0.000367,  -0.000000]
[...]
 24 A"   25 A"   80 A'   81 A'   82 A'   83 A'   84 A'   85 A'                 
  0.186   0.191   0.193   0.196   0.199   0.200   0.201   0.203
 26 A"   86 A'   27 A"   87 A'   88 A'   28 A"   89 A'   29 A"                 
  0.217   0.219   0.222   0.222   0.233   0.238   0.243   0.244
 90 A'   30 A"   31 A"   91 A'   92 A'   93 A'   32 A"   94 A'                 
  0.249   0.251   0.253   0.254   0.267   0.270   0.272   0.273
 33 A"   95 A'   34 A"   96 A'   35 A"   36 A"   97 A'   98 A'                 
  0.277   0.283   0.291   0.293   0.305   0.312   0.312   0.319
 99 A'  100 A'  101 A'  102 A'  103 A'  104 A'   37 A"  105 A'                 
  0.324   0.331   0.337   0.339   0.339   0.346   0.347   0.358
106 A'  107 A'   38 A"  108 A'  109 A'  110 A'  111 A'  112 A'                 
  0.361   0.362   0.375   0.379   0.383   0.386   0.386   0.389
 39 A"  113 A'  114 A'  115 A'  116 A'   40 A"  117 A'  118 A'                 
  0.391   0.393   0.400   0.402   0.406   0.407   0.409   0.419
 41 A"  119 A'  120 A'  121 A'  122 A'   42 A"  123 A'  124 A'                 
  0.427   0.431   0.441   0.446   0.450   0.453   0.459   0.459
125 A'  126 A'   43 A"   44 A"  127 A'  128 A'  129 A'   45 A"                 
  0.467   0.470   0.474   0.485   0.488   0.494   0.502   0.515
130 A'  131 A'  132 A'  133 A'   46 A"  134 A'  135 A'   47 A"                 
  0.522   0.529   0.529   0.544   0.553   0.557   0.560   0.563
136 A'   48 A"  137 A'  138 A'  139 A'   49 A"  140 A'  141 A'                 
  0.563   0.566   0.580   0.584   0.592   0.595   0.604   0.609
 50 A"  142 A'   51 A"  143 A'  144 A'  145 A'  146 A'  147 A'                 
  0.614   0.615   0.618   0.627   0.630   0.640   0.647   0.658
 52 A"  148 A'   53 A"   54 A"  149 A'  150 A'  151 A'  152 A'                 
  0.666   0.675   0.684   0.689   0.691   0.694   0.699   0.701
153 A'  154 A'  155 A'  156 A'   55 A"  157 A'   56 A"  158 A'                 
  0.703   0.705   0.709   0.715   0.721   0.722   0.729   0.741
159 A'   57 A"  160 A'  161 A'   58 A"  162 A'  163 A'  164 A'                 
  0.751   0.761   0.765   0.771   0.775   0.780   0.781   0.782
165 A'   59 A"  166 A'   60 A"  167 A'  168 A'   61 A"  169 A'                 
  0.793   0.801   0.804   0.812   0.818   0.839   0.843   0.847
170 A'  171 A'   62 A"  172 A'  173 A'   63 A"  174 A'  175 A'                 
  0.852   0.860   0.876   0.881   0.885   0.888   0.897   0.899
176 A'  177 A'  178 A'  179 A'   64 A"  180 A'   65 A"   66 A"                 
  0.899   0.901   0.906   0.914   0.917   0.928   0.929   0.933
181 A'  182 A'  183 A'   67 A"   68 A"  184 A'   69 A"   70 A"                 
  0.941   0.946   0.954   0.956   0.962   0.972   0.975   0.982
185 A'   71 A"   72 A"  186 A'   73 A"  187 A'   74 A"   75 A"                 
  0.983   0.988   0.992   0.995   1.000   1.015   1.016   1.037
188 A'   76 A"  189 A'   77 A"  190 A'   78 A"  191 A'  192 A'                 
  1.046   1.053   1.056   1.068   1.073   1.076   1.077   1.086
193 A'   79 A"  194 A'  195 A'  196 A'   80 A"  197 A'   81 A"                 
  1.099   1.131   1.138   1.149   1.159   1.174   1.179   1.184
198 A'  199 A'  200 A'   82 A"  201 A'   83 A"  202 A'  203 A'                 
  1.186   1.204   1.210   1.228   1.248   1.260   1.288   1.303
 84 A"  204 A'  205 A'   85 A"   86 A"   87 A"  206 A'  207 A'                 
  1.311   1.318   1.351   1.367   1.378   1.381   1.446   1.457
 88 A"  208 A'  209 A'   89 A"  210 A'  211 A'  212 A'   90 A"                 
  1.460   1.486   1.489   1.495   1.501   1.514   1.519   1.526
213 A'   91 A"  214 A'  215 A'   92 A"   93 A"  216 A'   94 A"                 
  1.541   1.563   1.568   1.577   1.580   1.598   1.601   1.604
217 A'  218 A'  219 A'   95 A"  220 A'  221 A'   96 A"  222 A'                 
  1.605   1.613   1.635   1.639   1.648   1.667   1.679   1.684
223 A'  224 A'  225 A'  226 A'  227 A'  228 A'  229 A'  230 A'                 
  1.684   1.691   1.695   1.709   1.711   1.713   1.716   1.716
 97 A"  231 A'   98 A"  232 A'  233 A'   99 A"  100 A"  234 A'                 
  1.727   1.735   1.737   1.747   1.751   1.756   1.772   1.779
101 A"  235 A'  102 A"  103 A"  236 A'  237 A'  104 A"  105 A"                 
  1.790   1.818   1.823   1.824   1.831   1.833   1.854   1.869
238 A'  239 A'  240 A'  106 A"  241 A'  242 A'  243 A'  244 A'                 
  1.895   1.906   1.909   1.919   1.932   1.933   1.951   1.961
245 A'  107 A"  246 A'  108 A"  109 A"  247 A'  248 A'  249 A'                 
  1.966   1.976   1.990   1.991   1.995   1.999   2.006   2.007
110 A"  250 A'  251 A'  252 A'  253 A'  111 A"  254 A'  112 A"                 
  2.011   2.021   2.038   2.045   2.061   2.079   2.109   2.110
255 A'  113 A"  256 A'  257 A'  258 A'  259 A'  114 A"  260 A'                 
  2.128   2.132   2.136   2.140   2.178   2.191   2.194   2.205
115 A"  261 A'  262 A'  116 A"  263 A'  264 A'  117 A"  265 A'                 
  2.210   2.212   2.224   2.239   2.245   2.260   2.266   2.297
118 A"  266 A'  119 A"  267 A'  120 A"  268 A'  269 A'  270 A'                 
  2.308   2.314   2.315   2.327   2.356   2.358   2.371   2.373
271 A'  121 A"  272 A'  122 A"  273 A'  274 A'  123 A"  275 A'                 
  2.380   2.384   2.398   2.411   2.441   2.444   2.462   2.474
124 A"  276 A'  277 A'  278 A'  279 A'  280 A'  281 A'  125 A"                 
  2.497   2.504   2.585   2.596   2.607   2.620   2.629   2.637
282 A'  283 A'  284 A'  126 A"  127 A"  285 A'  128 A"  129 A"                 
  2.673   2.678   2.686   2.756   2.757   2.800   2.807   2.817
286 A'  287 A'  288 A'  130 A"  289 A'  290 A'  291 A'  292 A'                 
  2.824   2.845   2.858   2.900   2.913   2.943   2.967   2.984
293 A'  294 A'  295 A'  296 A'  131 A"  297 A'  298 A'  299 A'                 
  2.998   3.019   3.054   3.064   3.078   3.117   3.154   3.161
300 A'  301 A'  302 A'  303 A'  304 A'  305 A'  306 A'  307 A'                 
  3.185   3.201   3.254   3.299   3.312   3.316   3.420   3.458
132 A"  308 A'  309 A'  310 A'  311 A'  312 A'  313 A'  314 A'                 
  3.512   3.547   3.598   3.633   3.668   3.718   3.763   3.789
315 A'  316 A'  317 A'  318 A'  319 A'  320 A'  321 A'  133 A"                 
  3.844   3.882   3.923   4.029   4.126   4.418   4.802   4.836
134 A"  322 A'  323 A'  324 A'  325 A'  326 A'  327 A'  328 A'                 

 Beta MOs, Unrestricted
 -- Occupied --                  
-149.36  -20.52  -16.82  -15.63  -15.62  -13.63  -13.63  -13.63
  1 A'    2 A'    3 A'    4 A'    5 A'    6 A'    1 A"    7 A'                 
-11.295 -11.265 -11.246 -11.242 -11.241 -11.241 -11.240 -11.239
  8 A'    9 A'   10 A'   11 A'   12 A'   13 A'   14 A'   15 A'                 
-11.238 -11.237 -11.222 -11.220  -2.241  -1.364  -1.351  -1.346
 16 A'   17 A'   18 A'   19 A'   20 A'   21 A'   22 A'    2 A"                 
 -1.346  -1.292  -1.151  -1.123  -1.047  -1.008  -1.003  -0.979
 23 A'   24 A'   25 A'   26 A'   27 A'   28 A'   29 A'   30 A'                 
 -0.895  -0.826  -0.825  -0.797  -0.756  -0.698  -0.677  -0.654
 31 A'   32 A'   33 A'   34 A'   35 A'   36 A'   37 A'   38 A'                 
 -0.648  -0.619  -0.600  -0.588  -0.584  -0.574  -0.568  -0.560
 39 A'   40 A'   41 A'   42 A'   43 A'   44 A'   45 A'    3 A"                 
 -0.535  -0.528  -0.509  -0.491  -0.486  -0.486  -0.437  -0.427
  4 A"   46 A'   47 A'   48 A'    5 A"   49 A'    6 A"   50 A'                 
 -0.380  -0.332  -0.329  -0.327  -0.267
 51 A'    7 A"    8 A"    9 A"   10 A"                                         
 -- Virtual --                   
 -0.009   0.014   0.015   0.023   0.034   0.041   0.045   0.049
 52 A'   53 A'   11 A"   54 A'   55 A'   56 A'   57 A'   58 A'                 
  0.050   0.052   0.052   0.055   0.058   0.062   0.063   0.066
 12 A"   59 A'   60 A'   13 A"   61 A'   14 A"   62 A'   15 A"                 
  0.067   0.070   0.080   0.087   0.092   0.105   0.111   0.111
 63 A'   64 A'   65 A'   66 A'   67 A'   68 A'   16 A"   69 A'                 
  0.120   0.123   0.123   0.125   0.129   0.135   0.138   0.139
 17 A"   18 A"   70 A'   71 A'   19 A"   20 A"   21 A"   72 A'                 
  0.143   0.147   0.148   0.149   0.151   0.155   0.160   0.161
 73 A'   22 A"   74 A'   75 A'   76 A'   23 A"   77 A'   78 A'                 
  0.162   0.164   0.166   0.168   0.172   0.179   0.180   0.187
 24 A"   25 A"   79 A'   80 A'   81 A'   82 A'   83 A'   26 A"                 
  0.188   0.190   0.193   0.194   0.197   0.201   0.201   0.202
 84 A'   85 A'   27 A"   86 A'   87 A'   28 A"   88 A'   89 A'                 
  0.204   0.218   0.222   0.223   0.229   0.235   0.241   0.244
 29 A"   90 A'   30 A"   91 A'   31 A"   92 A'   93 A'   32 A"                 
  0.248   0.253   0.254   0.257   0.257   0.272   0.274   0.275
 94 A'   33 A"   95 A'   96 A'   34 A"   35 A"   97 A'   36 A"                 
  0.276   0.282   0.287   0.294   0.298   0.307   0.313   0.313
 98 A'   99 A'  100 A'  101 A'  102 A'  103 A'  104 A'   37 A"                 
  0.320   0.324   0.331   0.337   0.339   0.340   0.346   0.348
105 A'  106 A'  107 A'   38 A"  108 A'  109 A'  110 A'  111 A'                 
  0.359   0.362   0.362   0.375   0.379   0.384   0.386   0.386
112 A'   39 A"  113 A'  114 A'  115 A'  116 A'  117 A'   40 A"                 
  0.390   0.392   0.394   0.400   0.402   0.406   0.408   0.410
118 A'   41 A"  119 A'  120 A'  121 A'  122 A'   42 A"  123 A'                 
  0.420   0.428   0.431   0.441   0.446   0.451   0.453   0.459
124 A'  125 A'  126 A'   43 A"   44 A"  127 A'  128 A'  129 A'                 
  0.460   0.469   0.470   0.476   0.485   0.488   0.494   0.502
 45 A"  130 A'  131 A'  132 A'  133 A'   46 A"  134 A'  135 A'                 
  0.515   0.523   0.529   0.529   0.544   0.554   0.557   0.560
 47 A"  136 A'   48 A"  137 A'  138 A'  139 A'   49 A"  140 A'                 
  0.563   0.563   0.566   0.580   0.585   0.592   0.596   0.605
141 A'   50 A"  142 A'   51 A"  143 A'  144 A'  145 A'  146 A'                 
  0.610   0.614   0.615   0.618   0.627   0.630   0.640   0.647
147 A'   52 A"  148 A'   53 A"   54 A"  149 A'  150 A'  151 A'                 
  0.659   0.666   0.675   0.684   0.689   0.691   0.694   0.699
152 A'  153 A'  154 A'  155 A'  156 A'   55 A"  157 A'   56 A"                 
  0.702   0.703   0.705   0.709   0.715   0.721   0.722   0.729
158 A'  159 A'   57 A"  160 A'  161 A'   58 A"  162 A'  163 A'                 
  0.741   0.751   0.761   0.765   0.771   0.775   0.780   0.781
164 A'  165 A'   59 A"  166 A'   60 A"  167 A'  168 A'   61 A"                 
  0.782   0.793   0.801   0.804   0.812   0.818   0.839   0.843
169 A'  170 A'  171 A'   62 A"  172 A'  173 A'   63 A"  174 A'                 
  0.847   0.852   0.860   0.876   0.881   0.885   0.888   0.897
175 A'  176 A'  177 A'  178 A'  179 A'   64 A"  180 A'   65 A"                 
  0.899   0.900   0.901   0.906   0.914   0.917   0.928   0.929
 66 A"  181 A'  182 A'  183 A'   67 A"   68 A"  184 A'   69 A"                 
  0.933   0.942   0.946   0.954   0.956   0.963   0.972   0.975
 70 A"  185 A'   71 A"   72 A"  186 A'   73 A"  187 A'   74 A"                 
  0.982   0.983   0.988   0.993   0.995   1.000   1.015   1.017
 75 A"  188 A'   76 A"  189 A'   77 A"  190 A'   78 A"  191 A'                 
  1.037   1.046   1.053   1.056   1.068   1.073   1.076   1.077
192 A'  193 A'   79 A"  194 A'  195 A'  196 A'   80 A"  197 A'                 
  1.086   1.099   1.131   1.138   1.149   1.159   1.174   1.179
 81 A"  198 A'  199 A'  200 A'   82 A"  201 A'   83 A"  202 A'                 
  1.184   1.186   1.204   1.210   1.228   1.248   1.260   1.288
203 A'   84 A"  204 A'  205 A'   85 A"   86 A"   87 A"  206 A'                 
  1.304   1.311   1.318   1.351   1.367   1.378   1.381   1.446
207 A'   88 A"  208 A'  209 A'   89 A"  210 A'  211 A'  212 A'                 
  1.457   1.461   1.486   1.489   1.495   1.501   1.514   1.519
 90 A"  213 A'   91 A"  214 A'  215 A'   92 A"   93 A"  216 A'                 
  1.526   1.541   1.564   1.570   1.577   1.580   1.598   1.600
 94 A"  217 A'  218 A'  219 A'   95 A"  220 A'  221 A'   96 A"                 
  1.605   1.608   1.613   1.635   1.640   1.648   1.667   1.680
222 A'  223 A'  224 A'  225 A'  226 A'  227 A'  228 A'  229 A'                 
  1.684   1.684   1.691   1.695   1.709   1.711   1.713   1.716
230 A'   97 A"  231 A'   98 A"  232 A'  233 A'   99 A"  100 A"                 
  1.716   1.727   1.736   1.737   1.747   1.751   1.756   1.772
234 A'  101 A"  235 A'  102 A"  103 A"  236 A'  237 A'  104 A"                 
  1.779   1.790   1.818   1.823   1.824   1.831   1.834   1.854
105 A"  238 A'  239 A'  240 A'  106 A"  241 A'  242 A'  243 A'                 
  1.869   1.895   1.906   1.909   1.919   1.932   1.933   1.951
244 A'  245 A'  107 A"  246 A'  108 A"  109 A"  247 A'  248 A'                 
  1.962   1.966   1.976   1.990   1.991   1.995   1.999   2.007
249 A'  110 A"  250 A'  251 A'  252 A'  253 A'  111 A"  112 A"                 
  2.007   2.011   2.021   2.038   2.045   2.061   2.079   2.109
254 A'  255 A'  113 A"  256 A'  257 A'  258 A'  259 A'  114 A"                 
  2.110   2.128   2.132   2.136   2.140   2.178   2.191   2.194
260 A'  115 A"  261 A'  262 A'  116 A"  263 A'  264 A'  117 A"                 
  2.205   2.210   2.212   2.224   2.239   2.245   2.260   2.266
265 A'  118 A"  266 A'  119 A"  267 A'  120 A"  268 A'  269 A'                 
  2.298   2.308   2.314   2.315   2.327   2.356   2.358   2.371
270 A'  271 A'  121 A"  272 A'  122 A"  273 A'  274 A'  123 A"                 
  2.373   2.380   2.384   2.398   2.411   2.441   2.444   2.462
275 A'  124 A"  276 A'  277 A'  278 A'  279 A'  280 A'  281 A'                 
  2.474   2.497   2.504   2.585   2.596   2.607   2.620   2.629
125 A"  282 A'  283 A'  284 A'  126 A"  127 A"  285 A'  128 A"                 
  2.637   2.673   2.678   2.686   2.756   2.757   2.800   2.807
129 A"  286 A'  287 A'  288 A'  130 A"  289 A'  290 A'  291 A'                 
  2.817   2.824   2.845   2.858   2.900   2.913   2.943   2.967
292 A'  293 A'  294 A'  295 A'  296 A'  131 A"  297 A'  298 A'                 
  2.984   2.998   3.019   3.054   3.064   3.078   3.117   3.154
299 A'  300 A'  301 A'  302 A'  303 A'  304 A'  305 A'  306 A'                 
  3.161   3.185   3.201   3.254   3.299   3.312   3.316   3.421
307 A'  132 A"  308 A'  309 A'  310 A'  311 A'  312 A'  313 A'                 
  3.458   3.512   3.547   3.598   3.633   3.668   3.718   3.763
314 A'  315 A'  316 A'  317 A'  318 A'  319 A'  320 A'  321 A'                 
  3.789   3.845   3.882   3.922   4.029   4.126   4.418   4.802
133 A"  134 A"  322 A'  323 A'  324 A'  325 A'  326 A'  327 A'                 
  4.837
328 A'                                                                         
 --------------------------------------------------------------

          Ground-State Mulliken Net Atomic Charges

     Atom                 Charge (a.u.)    Spin (a.u.)
  --------------------------------------------------------
      1 C                     0.702252       0.005799
      2 C                     0.220284      -0.005151
      3 C                     0.509721      -0.005572
      4 C                     0.679675       0.005724
      5 C                     0.047097      -0.004819
      6 C                     0.816493       0.003335
      7 N                    -0.687854       0.007137
      8 N                    -0.675209      -0.007052
      9 C                     0.380483       0.007546
     10 C                     0.328883      -0.011385
     11 C                     0.757048       0.001171
     12 C                     0.605740      -0.000245
     13 C                     0.600124       0.016649
     14 C                     0.567752       0.000126
     15 H                    -0.428840      -0.000126
     16 H                    -0.530465       0.000133
     17 H                    -0.435334       0.000112
     18 H                    -0.415237      -0.000122
     19 H                    -0.526900       0.000095
     20 H                    -0.548376      -0.000621
     21 H                    -0.537497       0.009495
     22 H                    -0.542393       0.009549
     23 H                    -0.554313      -0.000551
     24 O                    -1.187967      -0.051673
     25 Ca                    0.854832       1.020446
  --------------------------------------------------------
  Sum of atomic charges =    -0.000000
  Sum of spin   charges =     1.000000

 -----------------------------------------------------------------
                    Cartesian Multipole Moments
 -----------------------------------------------------------------
    Charge (ESU x 10^10)
                 0.0000
    Dipole Moment (Debye)
         X      -5.6204      Y      -0.2718      Z      -0.0000
       Tot       5.6270
    Quadrupole Moments (Debye-Ang)
        XX     -66.2891     XY       0.9920     YY     -97.8651
        XZ      -0.0000     YZ       0.0000     ZZ    -112.9906
    Octopole Moments (Debye-Ang^2)
       XXX     -53.1622    XXY      -0.8163    XYY      17.8340
       YYY       2.6151    XXZ      -0.0000    XYZ       0.0000
       YYZ      -0.0000    XZZ     -14.6268    YZZ      -0.0969
       ZZZ      -0.0000
    Hexadecapole Moments (Debye-Ang^3)
      XXXX  -10968.6405   XXXY     -65.6886   XXYY   -1943.7866
      XYYY     -25.1208   YYYY    -659.0094   XXXZ      -0.0000
      XXYZ       0.0000   XYYZ      -0.0000   YYYZ       0.0000
      XXZZ   -2103.1314   XYZZ      -1.1843   YYZZ    -162.8713
      XZZZ       0.0000   YZZZ       0.0000   ZZZZ    -167.6200
 -----------------------------------------------------------------
 Total job time:  867231.11s(wall), 1213762.03s(cpu) 
 Wed Jan 25 08:50:08 2023

======= MOLDEN-FORMATTED INPUT FILE FOLLOWS =======
[Molden Format]
[Atoms] (Angs)
  C      1    6      5.38708610      1.19101114     -0.00000000
  C      2    6      3.99189070      1.06071126     -0.00000000
  C      3    6      6.21309044      0.04921471      0.00000000
  C      4    6      5.63456771     -1.23001120      0.00000000
  C      5    6      4.23545543     -1.36536687      0.00000000
  C      6    6      3.41393550     -0.22601998      0.00000000
  N      7    7      1.99796605     -0.48702359      0.00000000
  N      8    7      1.29679689      0.55718855     -0.00000000
  C      9    6     -0.11397051      0.31959694     -0.00000000
  C     10    6     -0.92868597      1.46447214     -0.00000000
  C     11    6     -2.32567437      1.35269118      0.00000000
  C     12    6     -2.94457877      0.08020355     -0.00000000
  C     13    6     -2.10990697     -1.07107689      0.00000000
  C     14    6     -0.71875824     -0.95680710     -0.00000000
  H     15    1      5.83777935      2.19011218     -0.00000000
  H     16    1      3.33801096      1.93660822     -0.00000000
  H     17    1      7.30322960      0.16059225     -0.00000000
  H     18    1      6.26985689     -2.12272736      0.00000000
  H     19    1      3.75657799     -2.35020309      0.00000000
  H     20    1     -0.44330594      2.44685805     -0.00000000
  H     21    1     -2.95781245      2.24776347      0.00000000
  H     22    1     -2.58563428     -2.05875591      0.00000000
  H     23    1     -0.08171270     -1.84587005     -0.00000000
  O     24    8     -4.27956295     -0.04243733     -0.00000000
 Ca     25   20     -6.38352663     -0.23838735     -0.00000000

======= END OF MOLDEN-FORMATTED INPUT FILE =======


        *************************************************************
        *                                                           *
        *  Thank you very much for using Q-Chem.  Have a nice day.  *
        *                                                           *
        *************************************************************


